 6
# Fragment[ 10 11 15 12 13 14] of  ch3oh_ch3sch3_cs, factor= 1.0, energy= -5.69
 O       -0.431955000     1.777778000     0.000000000
 C        0.311098000     2.982827000     0.000000000
 H        0.200985000     1.046161000     0.000000000
 H       -0.403002000     3.801574000     0.000000000
 H        0.941415000     3.082379000     0.886188000
 H        0.941415000     3.082379000    -0.886188000
