 3
# Fragment[ 7 8 9] of  ch3sh_h2o_cs, factor= 1.0, energy= -2.36
 O       -0.075612000    -2.593240000     0.000000000
 H        0.069290000    -3.167521000    -0.754927000
 H        0.069290000    -3.167521000     0.754927000
