 6
# Fragment[ 1 2 3 4 5 6] of  ch3sh_h2co, factor= 1.0, energy= -3.11
 C       -1.151251000     1.488626000     0.056543000
 S        0.651215000     1.337311000    -0.031735000
 H       -1.360067000     2.374376000     0.650097000
 H       -1.597552000     0.627284000     0.544269000
 H       -1.582766000     1.618991000    -0.930693000
 H        0.658434000     0.213802000    -0.752707000
