 6
# Fragment[ 1 2 3 4 5 6] of  ch3sh_benzene_cs, factor= 1.0, energy= -3.50
 S        0.779515000     2.257972000     0.000000000
 C       -1.015571000     2.488997000     0.000000000
 H        0.754913000     0.923350000     0.000000000
 H       -1.190627000     3.561804000     0.000000000
 H       -1.466354000     2.058713000    -0.889264000
 H       -1.466354000     2.058713000     0.889264000
