 4
# Fragment[ 7 8 9 10] of  ch3sh_nh3_cs, factor= 1.0, energy= -2.95
 N       -0.086871000    -2.664865000     0.000000000
 H        0.333975000    -3.105098000    -0.808104000
 H        0.333975000    -3.105098000     0.808104000
 H       -1.056859000    -2.952825000     0.000000000
