 4
# Fragment[ 7 8 9 10] of  ch3sh_h2co, factor= 1.0, energy= -3.11
 C        0.111410000    -2.282770000     0.561372000
 O       -0.089184000    -2.090052000    -0.619056000
 H       -0.055182000    -3.268153000     1.020645000
 H        0.468512000    -1.480104000     1.223285000
