 6
# Fragment[ 1 2 3 4 5 6] of  formamide_ch3sh, factor= 1.0, energy= -6.33
 C        1.152285000     1.504542000    -0.486178000
 S       -0.483922000     1.867145000     0.206910000
 H        1.071252000     1.676116000    -1.556110000
 H        1.422769000     0.468990000    -0.302374000
 H        1.898584000     2.178873000    -0.079115000
 H       -0.194151000     1.535812000     1.465591000
