 3
# Fragment[ 4 5 6] of  h2o_dimer_cs, factor= 1.0, energy= -4.96
 O        0.025883000    -1.390422000     0.000000000
 H       -0.419470000    -1.778763000    -0.756177000
 H       -0.419470000    -1.778763000     0.756177000
