 3
# Fragment[ 1 2 3] of  h2o_dimer_cs, factor= 1.0, energy= -4.96
 O       -0.054524000     1.581007000     0.000000000
 H        0.853478000     1.886707000     0.000000000
 H        0.029467000     0.619943000     0.000000000
