 3
# Fragment[ 10 11 12] of  h2o_ch3sch3_cs, factor= 1.0, energy= -5.35
 O        0.016511000     2.457011000     0.000000000
 H        0.665202000     3.163040000     0.000000000
 H        0.550491000     1.651410000     0.000000000
