 3
# Fragment[ 4 5 6] of  h2o_h2s_cs, factor= 1.0, energy= -2.90
 S       -0.068054000     1.258755000     0.000000000
 H        0.849620000     1.150685000    -0.960960000
 H        0.849620000     1.150685000     0.960960000
