 3
# Fragment[ 1 2 3] of  h2o_h2s_cs, factor= 1.0, energy= -2.90
 O        0.046884000    -2.293802000     0.000000000
 H       -0.805511000    -2.732678000     0.000000000
 H       -0.179936000    -1.358345000     0.000000000
