 3
# Fragment[ 1 2 3] of  h2s_ch4, factor= 1.0, energy= -0.85
 S        0.080299000     1.333240000     0.025922000
 H       -0.629381000     2.461103000     0.007509000
 H       -1.015174000     0.578039000    -0.041582000
