 3
# Fragment[ 4 5 6] of  h2s_h2o_cs, factor= 1.0, energy= -2.66
 O       -0.014815000     2.222219000     0.000000000
 H        0.212404000     2.768199000    -0.755525000
 H        0.212404000     2.768199000     0.755525000
