 3
# Fragment[ 1 2 3] of  h2s_dimer_cs, factor= 1.0, energy= -1.67
 S        0.041076000    -2.135096000     0.000000000
 H       -1.272136000    -2.360500000     0.000000000
 H       -0.130032000    -0.810646000     0.000000000
