 3
# Fragment[ 1 2 3] of  h2s_h2o_cs, factor= 1.0, energy= -2.66
 S        0.059888000    -1.363007000     0.000000000
 H       -1.267296000    -1.478023000     0.000000000
 H        0.002821000    -0.027772000     0.000000000
