 3
# Fragment[ 4 5 6] of  h2s_dimer_cs, factor= 1.0, energy= -1.67
 S       -0.060964000     2.066020000     0.000000000
 H        0.859673000     2.137007000    -0.961210000
 H        0.859673000     2.137007000     0.961210000
