113
3_COMPLEX2.log	Energy: -2333079.4037530
N         -4.85902       -1.56422        0.34617
H         -4.82422       -2.32261       -0.38224
N         -4.94533        1.23506       -0.55836
H         -5.01615        1.98341        0.17839
O          0.69754       -4.40063       -0.78956
O          4.95858       -4.60278       -1.29496
O          5.15471       -3.27664        0.82095
H          5.36273       -3.81128       -0.02284
O          1.28835       -1.87780        3.12868
H          0.28670       -1.81844        2.96605
O         -1.21508       -1.73665        2.43862
O         -3.90508       -3.36317       -1.16008
O          0.30836        4.41182        0.99259
O          4.51295        4.79619        1.78725
O          4.91392        3.72065       -0.43208
H          5.03370        4.17631        0.47453
O          1.28420        2.21837       -3.04296
H          0.29475        2.03212       -2.91247
O         -1.20740        1.74429       -2.42413
O         -4.22964        3.06896        1.03324
C          1.65194       -3.83362        0.07244
C          3.03942       -3.91919       -0.12091
C          3.81634       -3.26641        0.90274
C          3.24166       -2.57153        1.98001
C          1.84109       -2.54156        2.10002
C          1.04860       -3.18878        1.13366
C         -0.42975       -3.51002        1.07912
C         -1.45183       -2.43084        1.42448
C         -2.66873       -2.39872        0.65877
C         -2.82522       -3.28513       -0.51077
C         -1.66951       -4.00665       -1.03519
H         -1.75090       -4.41567       -2.03540
C         -0.53499       -4.00891       -0.32329
C          3.70672       -4.55347       -1.24709
C          2.91991       -5.13747       -2.39337
H          3.62364       -5.52622       -3.13046
H          2.28450       -4.36869       -2.84516
H          2.25749       -5.93688       -2.04765
C          4.11813       -1.86862        2.97919
H          3.54956       -1.10193        3.50915
H          4.97911       -1.41517        2.47980
H          4.51399       -2.57122        3.72305
C         -0.74013       -4.69255        2.06483
H         -0.56373       -4.35161        3.08790
H         -0.07810       -5.53344        1.84379
H         -1.78144       -5.00929        1.95740
C         -3.70389       -1.47073        1.00089
C         -3.51574       -0.40806        2.04086
H         -4.34910        0.29243        2.05998
H         -2.59025        0.13859        1.85009
H         -3.39183       -0.86598        3.02603
C         -6.05458       -0.73943        0.42593
H         -6.07543       -0.20733        1.38138
C         -7.28961       -1.64862        0.32539
H         -7.26685       -2.36473        1.15354
H         -7.22290       -2.23066       -0.60415
C         -8.58830       -0.83585        0.33456
H         -9.44528       -1.51129        0.23968
H         -8.69216       -0.32295        1.30049
C          1.34406        3.97160        0.15306
C          2.70997        4.14135        0.42868
C          3.58493        3.63101       -0.59863
C          3.12083        3.00239       -1.76543
C          1.73540        2.84867       -1.94560
C          0.84773        3.34481       -0.97179
C         -0.65298        3.53705       -0.97554
C         -1.55915        2.38784       -1.40813
C         -2.80895        2.23697       -0.71503
C         -3.10475        3.08133        0.46137
C         -2.03743        3.85837        1.08162
H         -2.20152        4.21348        2.09192
C         -0.86718        3.96257        0.43950
C          3.26867        4.73059        1.63626
C          2.38289        5.25882        2.73541
H          3.01894        5.66148        3.52478
H          1.75188        4.45692        3.13133
H          1.71325        6.03708        2.35650
C          4.09387        2.48854       -2.79107
H          3.63911        1.69016       -3.38053
H          5.00309        2.12063       -2.31005
H          4.39310        3.28658       -3.48202
C         -1.02107        4.72878       -1.92922
H         -0.77019        4.44972       -2.95556
H         -0.44605        5.61334       -1.64413
H         -2.08977        4.95010       -1.85874
C         -3.74518        1.23919       -1.13343
C         -3.40606        0.20596       -2.16569
H         -4.17609       -0.56038       -2.24087
H         -2.45500       -0.26636       -1.91363
H         -3.25678        0.68173       -3.13860
C         -6.06049        0.31469       -0.71545
H         -5.97385       -0.21516       -1.66847
C         -7.37065        1.11797       -0.70113
H         -7.35164        1.83526       -1.52840
H         -7.41509        1.70145        0.22875
C         -8.59360        0.19998       -0.79519
H         -9.50828        0.80140       -0.75994
H         -8.58953       -0.31703       -1.76464
Cl         4.80173       -1.18212       -2.10418
N          1.07599        1.28357        1.94622
N          1.65487       -1.31112       -2.01093
N          0.17900       -0.40083       -0.49228
O         -0.14251        1.18848        1.76504
O          1.60818        1.85633        2.90461
O          0.34539       -1.15462       -1.64654
C          1.41581       -0.07626       -0.13970
C          1.94344        0.68223        0.94307
C          3.30312        0.85853        1.02740
H          3.69152        1.44725        1.85002
C          4.20189        0.29070        0.08812
H          5.26509        0.46254        0.20238
C          3.74104       -0.46837       -0.96013
C          2.33436       -0.64762       -1.08907
