158
4_COMPLEX2.log	Energy: -3118896.4366725
C          0.00209        0.90025        2.46712
C          0.00138       -0.00624        3.53237
C         -1.17357       -0.82242        3.78343
C         -0.72681       -2.14282        4.19088
C         -1.16197        1.02371        1.61275
C         -2.29501       -0.69475        2.95984
C          1.16566        1.02058        1.61165
C          1.17438       -0.82557        3.78232
C          0.72448       -2.14477        4.19020
C          2.29537       -0.70091        2.95765
C         -1.42391       -3.27673        3.76077
C         -2.28359        0.23951        1.85394
C         -3.00909       -1.87258        2.51052
C          1.41814       -3.28053        3.75943
C         -2.58390       -3.13757        2.90403
C         -0.70060       -4.44623        3.30664
C         -0.71665        1.23900        0.25316
C          2.28540        0.23337        1.85177
C          0.71964        1.23708        0.25248
C         -3.00286       -0.34793        0.74563
C         -3.44766       -1.65302        1.14987
C         -2.58307       -4.22291        1.94689
C         -1.41941       -5.03063        2.19556
C          0.69127       -4.44810        3.30598
C         -1.45351        0.74805       -0.85662
C         -2.64022       -0.07681       -0.59989
C         -3.54413       -2.71997        0.21930
C         -3.09479       -4.05494        0.63216
C         -0.74135       -5.69130        1.13642
C          1.40746       -5.03442        2.19422
C         -0.72047        0.53087       -2.05297
C          1.45414        0.74416       -0.85800
C         -3.00238       -1.06107       -1.55523
C         -3.45026       -2.36571       -1.15155
C         -2.58484       -4.93587       -0.35891
C         -1.42129       -5.74414       -0.10969
C          0.72664       -5.69327        1.13572
C         -1.16688       -0.41765       -3.05118
C          0.71939        0.52894       -2.05365
C         -2.29075       -1.20041       -2.80574
C         -3.01493       -3.31535       -2.15153
C         -2.58805       -4.58104       -1.76158
C         -0.70474       -5.89013       -1.35763
C          1.40525       -5.74793       -0.11103
C          3.00587       -1.88064        2.50765
C          2.57768       -3.14449        2.90158
C          3.00207       -0.35596        0.74279
C          2.57305       -4.22982        1.94444
C          2.63886       -0.08389       -0.60239
C         -0.00337       -1.00352       -3.68566
C          1.16232       -0.42076       -3.05228
C         -2.30369       -2.59689       -3.19063
C         -1.42927       -5.18050       -2.39161
C          0.68712       -5.89199       -1.35829
C          2.57072       -4.94277       -0.36136
C          3.44375       -1.66225        1.14660
C          3.08397       -4.06321        0.62923
C          2.99748       -1.06911       -1.55807
C         -0.00535       -2.35414       -4.04998
C          2.28431       -1.20654       -2.80791
C         -1.18043       -3.16814       -3.79631
C         -0.73353       -4.48815       -3.38769
C          1.41256       -5.18430       -2.39296
C          2.57355       -4.58795       -1.76403
C          3.53648       -2.72945        0.21594
C          3.44225       -2.37494       -1.15482
C          1.16778       -3.17128       -3.79743
C          2.29314       -2.60304       -3.19282
C          0.71774       -4.49009       -3.38838
C          3.00344       -3.32341       -2.15439
C         -1.37349        6.82260       -2.42686
C         -0.69476        5.91902       -1.59322
C          0.71144        5.91697       -1.59329
C          1.39274        6.81855       -2.42700
C          0.70808        7.71893       -3.23764
C         -0.68628        7.72097       -3.23757
C          1.53151        4.96392       -0.80339
C          2.43803        4.15641       -1.48858
C          3.41113        3.37718       -0.84976
C          3.46598        3.41513        0.59953
C          2.50875        4.19285        1.26774
C          1.55026        4.96647        0.61056
C          4.31753        2.51396       -1.61577
C          5.34969        1.96785       -0.88240
C          5.41751        2.02026        0.54443
C          4.45737        2.61856        1.33398
C          6.18606        0.91409        0.98050
C          6.58570        0.17797       -0.16249
C          6.07689        0.83284       -1.31157
C          6.86048       -1.18058       -0.12792
C          6.91462       -1.74206        1.20299
C          6.53207       -1.01913        2.32668
C          6.04849        0.33992        2.23746
C          5.21688        1.09262        3.13934
C          4.45450        2.17545        2.70500
C          6.79162       -1.83348       -1.41589
C          6.30105       -1.19012       -2.54600
C          5.81956        0.17160       -2.50512
C          4.88732        0.85291       -3.36693
C          4.16779        1.96613       -2.93935
C          0.71404        5.88920        1.42215
C         -0.69712        5.89122        1.42222
C         -1.37104        6.77313        2.28389
C         -0.68592        7.64598        3.12287
C          0.70800        7.64399        3.12280
C          1.39055        6.76920        2.28376
C         -1.51750        4.96835       -0.80325
C         -2.42643        4.16349       -1.48835
C         -3.40163        3.38697       -0.84944
C         -3.45614        3.42496        0.59988
C         -2.49664        4.19996        1.26798
C         -1.53606        4.97088        0.61070
C         -4.44964        2.63110        1.33442
C         -5.41156        2.03555        0.54498
C         -5.34413        1.98307       -0.88186
C         -4.31057        2.52634       -1.61536
C         -6.07457        0.85013       -1.31101
C         -6.58500        0.19658       -0.16190
C         -6.18313        0.93150        0.98108
C         -4.44782        2.18790        2.70542
C         -5.21319        1.10720        3.13981
C         -6.04702        0.35687        2.23799
C         -6.53439       -1.00082        2.32718
C         -6.91912       -1.72261        1.20348
C         -6.86361       -1.16119       -0.12740
C         -4.16257        1.97819       -2.93899
C         -4.88528        0.86703       -3.36655
C         -5.81930        0.18827       -2.50466
C         -6.30467       -1.17208       -2.54559
C         -6.79683       -1.81416       -1.41545
H          5.08448        0.75098        4.16286
H          3.76307        2.62068        3.41491
H          3.39815        2.35464       -3.60069
H          4.64898        0.43153       -4.34026
H          6.18353       -1.77124       -3.45750
H          7.03915       -2.88938       -1.49324
H          7.17031       -2.79122        1.32986
H          6.50444       -1.53361        3.28410
H         -6.50807       -1.51546        3.28455
H         -7.17774       -2.77105        1.33032
H         -7.04736       -2.86935       -1.49285
H         -6.18894       -1.75344       -3.45716
H         -4.64829        0.44507       -4.33996
H         -3.39195        2.36459       -3.60044
H         -3.75509        2.63118        3.41526
H         -5.08162        0.76515        4.16329
H          2.40794        4.16386       -2.57468
H          2.52930        4.22269        2.35360
H         -2.39648        4.17092       -2.57445
H         -2.51695        4.22980        2.35385
H          2.47703        6.76353        2.27569
H          1.26144        8.32014        3.76798
H         -1.23738        8.32370        3.76810
H         -2.45753        6.77056        2.27592
H          2.47925        6.80795       -2.42216
H          1.26032        8.41387       -3.86364
H         -1.23655        8.41752       -3.86350
H         -2.46003        6.81518       -2.42190
