130
5_HOST.log	Energy: -1805255.0134088
C          1.18553        7.97937       -0.57249
C         -0.01636        8.67955       -0.64180
C         -1.21650        7.97598       -0.57681
C         -1.16806        6.58585       -0.45364
N         -0.01285        5.90344       -0.39979
C          1.14063        6.58911       -0.44958
C         -2.46037        5.80875       -0.35759
O         -3.55217        6.37227       -0.37684
C          2.43476        5.81559       -0.34944
O          3.52517        6.38184       -0.36718
N         -2.25940        4.46446       -0.24537
C         -3.24318        3.44622       -0.12088
C         -4.15902        3.45408        0.94084
C         -5.05185        2.37885        1.05009
C         -5.04455        1.30956        0.15495
C         -4.11559        1.33969       -0.89331
C         -3.21553        2.38860       -1.05010
C         -5.98090        0.09533        0.28049
C         -6.76743        0.10735        1.61383
C         -7.78611       -1.03328        1.69559
C         -8.81797       -0.90669        0.56980
C         -8.12083       -0.90465       -0.79491
C         -7.01954        0.16492       -0.87230
H         -9.37765        0.03087        0.69967
H         -9.54680       -1.72417        0.61939
C         -5.07805       -1.14763        0.21212
C         -4.15053       -1.36191        1.24002
C         -3.22803       -2.40267        1.19778
C         -3.23213       -3.26390        0.08400
C         -4.13768       -3.07843       -0.97023
C         -5.04852       -2.01782       -0.87705
C         -2.23352       -2.59896        2.31404
N         -2.23959       -4.27899        0.02284
C         -2.43479       -5.62076       -0.12622
O         -3.52496       -6.17954       -0.22136
C         -4.11784       -3.94835       -2.19757
C         -4.16575        4.54720        1.97479
C         -2.21961        2.38794       -2.18221
C         -1.14060       -6.39827       -0.17618
N          0.01243       -5.71458       -0.09755
C          1.16771       -6.39400       -0.18038
C          1.21676       -7.78196       -0.32597
C          0.01700       -8.48612       -0.39135
C         -1.18510       -7.78643       -0.32121
C          2.45920       -5.61168       -0.13431
O          3.55103       -6.16575       -0.23750
N          2.23743        4.47085       -0.23562
C          3.22517        3.45632       -0.11274
C          4.14207        3.46714        0.94799
C          5.04024        2.39617        1.05472
C          5.03765        1.32849        0.15765
C          4.10740        1.35557       -0.88956
C          3.20172        2.40000       -1.04350
C          5.98073        0.11929        0.27986
C          6.77030        0.13450        1.61120
C          7.79487       -1.00121        1.68980
C          8.82294       -0.86924        0.56107
C          8.12228       -0.86914       -0.80190
C          7.01621        0.19569       -0.87527
H          9.37872        0.07084        0.68996
H          9.55565       -1.68337        0.60831
C          5.08457       -1.12839        0.21170
C          4.16289       -1.35126        1.24289
C          3.24520       -2.39620        1.20055
C          3.24788       -3.25236        0.08290
C          4.14744       -3.05808       -0.97476
C          5.05387       -1.99385       -0.88120
C          2.25733       -2.60252        2.32082
N          2.25944       -4.27136        0.02194
C          4.12536       -3.92230       -2.20603
C          4.14524        4.55926        1.98298
C          2.20469        2.39612       -2.17451
H         -1.26854       -4.02578        0.18645
H         -1.28598        4.19136       -0.35428
H         -4.12293       -0.68046        2.08661
H         -5.72355       -1.86580       -1.71290
H         -5.74270        2.38570        1.88707
H         -4.07653        0.50908       -1.59411
H         -2.24440       -3.63153        2.68029
H         -2.45620       -1.92993        3.14897
H         -1.20727       -2.38403        1.98573
H         -3.09036       -4.13220       -2.53182
H         -4.66988       -3.47085       -3.01189
H         -4.56435       -4.92618       -1.98891
H         -2.23997        3.33535       -2.73204
H         -2.43257        1.57407       -2.87985
H         -1.19209        2.24813       -1.81911
H         -3.14493        4.80234        2.28195
H         -4.72739        4.23228        2.85859
H         -4.61445        5.46148        1.57261
H         -6.07504        0.06908        2.46166
H         -7.30920        1.05945        1.68698
H         -7.26753       -1.99807        1.61694
H         -8.28181       -1.01308        2.67332
H         -7.69472       -1.89933       -0.96878
H         -8.84794       -0.72648       -1.59663
H         -7.48231        1.15892       -0.81948
H         -6.50485        0.12176       -1.83935
H         -2.15246       -8.27274       -0.37913
H          0.01883       -9.56647       -0.50281
H         -2.18527        8.46161       -0.61353
H         -0.01772        9.76129       -0.73902
H          1.28823       -4.02288        0.19187
H          1.26507        4.19455       -0.34614
H          4.13583       -0.67344        2.09247
H          5.72375       -1.83471       -1.71982
H          5.73157        2.40486        1.89136
H          4.07179        0.52598       -1.59176
H          2.27556       -3.63662        2.68239
H          2.48059       -1.93596        3.15745
H          1.22829       -2.39173        1.99854
H          3.09701       -4.10952       -2.53584
H          4.67068       -3.43821       -3.02101
H          4.57775       -4.89896       -2.00456
H          2.21908        3.34473       -2.72245
H          2.42134        1.58483       -2.87392
H          1.17843        2.24989       -1.81037
H          3.12364        4.81055        2.29074
H          4.70830        4.24552        2.86632
H          4.59072        5.47545        1.58152
H          6.08031        0.09249        2.46082
H          7.30751        1.08927        1.68348
H          7.28085       -1.96848        1.61249
H          8.29336       -0.97857        2.66600
H          7.69985       -1.86532       -0.97570
H          8.84675       -0.68707       -1.60524
H          7.47471        1.19166       -0.82188
H          6.49953        0.15185       -1.84116
H          2.18568       -8.26474       -0.38787
H          2.15304        8.46769       -0.60579
