125
6_COMPLEX1.log	Energy: -2400202.0199753
C          0.04384       -0.77960        5.02574
C          0.01808        0.78747        5.00762
N          1.27554        1.13803        4.39110
C          2.05013        0.02864        4.05967
N          1.28890       -1.10085        4.36733
N         -1.16376       -1.13701        4.30556
C         -1.86491       -0.03719        3.83371
N         -1.17644        1.09208        4.23592
O         -2.91365       -0.07091        3.20723
O          3.18045        0.03681        3.62489
C         -1.74884        2.41861        4.11263
C          1.80738        2.48408        4.28697
C          0.14153       -4.80951        1.85859
C          0.11593       -4.01280        3.20973
N          1.31870       -3.21908        3.15654
C          2.07853       -3.45836        2.01221
N          1.34827       -4.34596        1.21994
N         -1.10834       -4.41773        1.22088
C         -1.83767       -3.52401        1.97539
N         -1.13857       -3.27624        3.13319
O         -2.93745       -3.06074        1.67966
O          3.17738       -3.01283        1.76886
C         -1.69922       -2.47222        4.20317
C          1.84850       -2.43033        4.25454
C          0.09280        4.82280       -1.86054
C          0.04900        4.01001       -3.20111
N          1.28528        3.26562       -3.18614
C          2.03436        3.47608       -2.02982
N          1.29096        4.32797       -1.21637
N         -1.16577        4.48702       -1.22333
C         -1.90736        3.56121       -1.93963
N         -1.16885        3.22835       -3.06750
O         -3.01321        3.13662       -1.65517
O          3.13718        3.03142       -1.79481
C         -1.74884        2.41861       -4.11263
C          1.80738        2.48408       -4.28697
C          0.04900        4.01001        3.20111
C          0.09280        4.82280        1.86054
N          1.29096        4.32797        1.21637
C          2.03436        3.47608        2.02982
N          1.28528        3.26562        3.18614
N         -1.16885        3.22835        3.06750
C         -1.90736        3.56121        1.93963
N         -1.16577        4.48702        1.22333
O         -3.01321        3.13662        1.65517
O          3.13718        3.03142        1.79481
C         -1.67192        5.07525        0.00000
C          1.85857        4.87142        0.00000
C          0.11593       -4.01280       -3.20973
C          0.14153       -4.80951       -1.85859
N          1.34827       -4.34596       -1.21994
C          2.07853       -3.45836       -2.01221
N          1.31870       -3.21908       -3.15654
N         -1.13857       -3.27624       -3.13319
C         -1.83767       -3.52401       -1.97539
N         -1.10834       -4.41773       -1.22088
O         -2.93745       -3.06074       -1.67966
O          3.17738       -3.01283       -1.76886
C         -1.63441       -4.99068        0.00000
C          1.90976       -4.89082        0.00000
C          0.01808        0.78747       -5.00762
C          0.04384       -0.77960       -5.02574
N          1.28890       -1.10085       -4.36733
C          2.05013        0.02864       -4.05967
N          1.27554        1.13803       -4.39110
N         -1.17644        1.09208       -4.23592
C         -1.86491       -0.03719       -3.83371
N         -1.16376       -1.13701       -4.30556
O         -2.91365       -0.07091       -3.20723
O          3.18045        0.03681       -3.62489
C         -1.69922       -2.47222       -4.20317
C          1.84850       -2.43033       -4.25454
H          0.01682       -1.20837        6.03704
H         -0.06060        1.23684        6.00709
H         -1.64423        2.93400        5.07677
H         -2.80452        2.29155        3.85927
H          1.61759        3.01884        5.22641
H          2.88189        2.37699        4.11472
H          0.16188       -5.89962        1.99090
H          0.11199       -4.65639        4.09960
H         -2.76738       -2.37682        3.99516
H         -1.53888       -2.99408        5.15441
H          2.91712       -2.30169        4.05993
H          1.68970       -2.97587        5.19414
H          0.15739        5.90947       -2.00990
H         -0.00629        4.64506       -4.09628
H         -1.64423        2.93400       -5.07677
H         -2.80452        2.29155       -3.85927
H          1.61759        3.01884       -5.22641
H          2.88189        2.37699       -4.11472
H         -0.00629        4.64506        4.09628
H          0.15739        5.90947        2.00990
H         -2.75273        4.91434        0.00000
H         -1.44171        6.14706        0.00000
H          2.91831        4.60042        0.00000
H          1.73921        5.96348        0.00000
H          0.11199       -4.65639       -4.09960
H          0.16188       -5.89962       -1.99090
H         -1.43224       -6.06845        0.00000
H         -2.71083       -4.80505        0.00000
H          1.78530       -5.98168        0.00000
H          2.97060       -4.62429        0.00000
H         -0.06060        1.23684       -6.00709
H          0.01682       -1.20837       -6.03704
H         -2.76738       -2.37682       -3.99516
H         -1.53888       -2.99408       -5.15441
H          2.91712       -2.30169       -4.05993
H          1.68970       -2.97587       -5.19414
C          1.62141        0.10097        0.00000
C          0.21176        0.69736        0.00000
C         -0.88410       -0.37795        0.00000
C         -2.27358        0.24435        0.00000
N         -3.34463       -0.82327        0.00000
H         -3.26557       -1.44537        0.82911
H         -4.27190       -0.39215        0.00000
H         -3.26557       -1.44537       -0.82911
H          2.38354        0.88318        0.00000
H          1.78821       -0.52241       -0.88409
H          1.78821       -0.52241        0.88409
H          0.07681        1.34053        0.87908
H          0.07681        1.34053       -0.87908
H         -0.76020       -1.01908        0.88296
H         -0.76020       -1.01908       -0.88296
H         -2.45138        0.85222        0.88688
H         -2.45138        0.85222       -0.88688
