 Entering Gaussian System, Link 0=g16
 Input=1.001_OH-O__aceticacid--acetaldehyde_105.gjf
 Output=1.001_OH-O__aceticacid--acetaldehyde_105.log
 Initial command:
 /home/alberto/src/g16/l1.exe "/home/alberto/scratch/Gau-877799.inp" -scrdir="/home/alberto/scratch/"
 Entering Link 1 = /home/alberto/src/g16/l1.exe PID=    877801.
  
 Copyright (c) 1988,1990,1992,1993,1995,1998,2003,2009,2016,
            Gaussian, Inc.  All Rights Reserved.
  
 This is part of the Gaussian(R) 16 program.  It is based on
 the Gaussian(R) 09 system (copyright 2009, Gaussian, Inc.),
 the Gaussian(R) 03 system (copyright 2003, Gaussian, Inc.),
 the Gaussian(R) 98 system (copyright 1998, Gaussian, Inc.),
 the Gaussian(R) 94 system (copyright 1995, Gaussian, Inc.),
 the Gaussian 92(TM) system (copyright 1992, Gaussian, Inc.),
 the Gaussian 90(TM) system (copyright 1990, Gaussian, Inc.),
 the Gaussian 88(TM) system (copyright 1988, Gaussian, Inc.),
 the Gaussian 86(TM) system (copyright 1986, Carnegie Mellon
 University), and the Gaussian 82(TM) system (copyright 1983,
 Carnegie Mellon University). Gaussian is a federally registered
 trademark of Gaussian, Inc.
  
 This software contains proprietary and confidential information,
 including trade secrets, belonging to Gaussian, Inc.
  
 This software is provided under written license and may be
 used, copied, transmitted, or stored only in accord with that
 written license.
  
 The following legend is applicable only to US Government
 contracts under FAR:
  
                    RESTRICTED RIGHTS LEGEND
  
 Use, reproduction and disclosure by the US Government is
 subject to restrictions as set forth in subparagraphs (a)
 and (c) of the Commercial Computer Software - Restricted
 Rights clause in FAR 52.227-19.
  
 Gaussian, Inc.
 340 Quinnipiac St., Bldg. 40, Wallingford CT 06492
  
  
 ---------------------------------------------------------------
 Warning -- This program may not be used in any manner that
 competes with the business of Gaussian, Inc. or will provide
 assistance to any competitor of Gaussian, Inc.  The licensee
 of this program is prohibited from giving any competitor of
 Gaussian, Inc. access to this program.  By using this program,
 the user acknowledges that Gaussian, Inc. is engaged in the
 business of creating and licensing software in the field of
 computational chemistry and represents and warrants to the
 licensee that it is not a competitor of Gaussian, Inc. and that
 it will not use this program in any manner prohibited above.
 ---------------------------------------------------------------
  

 Cite this work as:
 Gaussian 16, Revision A.03,
 M. J. Frisch, G. W. Trucks, H. B. Schlegel, G. E. Scuseria, 
 M. A. Robb, J. R. Cheeseman, G. Scalmani, V. Barone, 
 G. A. Petersson, H. Nakatsuji, X. Li, M. Caricato, A. V. Marenich, 
 J. Bloino, B. G. Janesko, R. Gomperts, B. Mennucci, H. P. Hratchian, 
 J. V. Ortiz, A. F. Izmaylov, J. L. Sonnenberg, D. Williams-Young, 
 F. Ding, F. Lipparini, F. Egidi, J. Goings, B. Peng, A. Petrone, 
 T. Henderson, D. Ranasinghe, V. G. Zakrzewski, J. Gao, N. Rega, 
 G. Zheng, W. Liang, M. Hada, M. Ehara, K. Toyota, R. Fukuda, 
 J. Hasegawa, M. Ishida, T. Nakajima, Y. Honda, O. Kitao, H. Nakai, 
 T. Vreven, K. Throssell, J. A. Montgomery, Jr., J. E. Peralta, 
 F. Ogliaro, M. J. Bearpark, J. J. Heyd, E. N. Brothers, K. N. Kudin, 
 V. N. Staroverov, T. A. Keith, R. Kobayashi, J. Normand, 
 K. Raghavachari, A. P. Rendell, J. C. Burant, S. S. Iyengar, 
 J. Tomasi, M. Cossi, J. M. Millam, M. Klene, C. Adamo, R. Cammi, 
 J. W. Ochterski, R. L. Martin, K. Morokuma, O. Farkas, 
 J. B. Foresman, and D. J. Fox, Gaussian, Inc., Wallingford CT, 2016.
 
 ******************************************
 Gaussian 16:  ES64L-G16RevA.03 25-Dec-2016
                20-Oct-2020 
 ******************************************
 %nprocs=4
 Will use up to    4 processors via shared memory.
 %mem=2GB
 ----------------------------------------------------------------
 #p hf aug-cc-pvdz output=wfx scf=(conver=6) int=(grid=ultrafine)
 ----------------------------------------------------------------
 1/38=1,172=1/1;
 2/12=2,17=6,18=5,40=1/2;
 3/5=16,7=10,11=9,25=1,30=1,75=-5/1,2,3;
 4//1;
 5/5=2,6=6,38=5/2;
 6/7=2,8=2,9=2,10=2,28=1/1;
 99/5=1,6=200,9=1/99;
 Leave Link    1 at Tue Oct 20 02:56:20 2020, MaxMem=   268435456 cpu:               0.1 elap:               0.0
 (Enter /home/alberto/src/g16/l101.exe)
 -----
 title
 -----
 Symbolic Z-matrix:
 Charge =  0 Multiplicity = 1
 C                    -1.67671  -0.15555   0. 
 O                    -0.99353  -1.15579   0. 
 O                    -1.17395   1.08018   0. 
 H                    -0.18594   1.03555   0. 
 C                    -3.18097  -0.15607   0. 
 H                    -3.55027  -1.17555   0. 
 H                    -3.54901   0.37521  -0.87674 
 H                    -3.54901   0.37521   0.87674 
 H                     3.81889  -1.08008   0.8742 
 H                     3.81889  -1.08008  -0.8742 
 H                     4.15383   0.44327   0. 
 H                     1.42346  -1.05417   0. 
 C                     3.57135  -0.47364   0. 
 C                     2.10624  -0.19048   0. 
 O                     1.64161   0.93042   0. 
 
 ITRead=  0  0  0  0  0  0  0  0  0  0  0  0  0  0  0
 MicOpt= -1 -1 -1 -1 -1 -1 -1 -1 -1 -1 -1 -1 -1 -1 -1
 NAtoms=     15 NQM=       15 NQMF=       0 NMMI=      0 NMMIF=      0
                NMic=       0 NMicF=      0.
                    Isotopes and Nuclear Properties:
 (Nuclear quadrupole moments (NQMom) in fm**2, nuclear magnetic moments (NMagM)
  in nuclear magnetons)

  Atom         1           2           3           4           5           6           7           8           9          10
 IAtWgt=          12          16          16           1          12           1           1           1           1           1
 AtmWgt=  12.0000000  15.9949146  15.9949146   1.0078250  12.0000000   1.0078250   1.0078250   1.0078250   1.0078250   1.0078250
 NucSpn=           0           0           0           1           0           1           1           1           1           1
 AtZEff=  -0.0000000  -0.0000000  -0.0000000  -0.0000000  -0.0000000  -0.0000000  -0.0000000  -0.0000000  -0.0000000  -0.0000000
 NQMom=    0.0000000   0.0000000   0.0000000   0.0000000   0.0000000   0.0000000   0.0000000   0.0000000   0.0000000   0.0000000
 NMagM=    0.0000000   0.0000000   0.0000000   2.7928460   0.0000000   2.7928460   2.7928460   2.7928460   2.7928460   2.7928460
 AtZNuc=   6.0000000   8.0000000   8.0000000   1.0000000   6.0000000   1.0000000   1.0000000   1.0000000   1.0000000   1.0000000

  Atom        11          12          13          14          15
 IAtWgt=           1           1          12          12          16
 AtmWgt=   1.0078250   1.0078250  12.0000000  12.0000000  15.9949146
 NucSpn=           1           1           0           0           0
 AtZEff=  -0.0000000  -0.0000000  -0.0000000  -0.0000000  -0.0000000
 NQMom=    0.0000000   0.0000000   0.0000000   0.0000000   0.0000000
 NMagM=    2.7928460   2.7928460   0.0000000   0.0000000   0.0000000
 AtZNuc=   1.0000000   1.0000000   6.0000000   6.0000000   8.0000000
 Leave Link  101 at Tue Oct 20 02:56:20 2020, MaxMem=   268435456 cpu:               0.2 elap:               0.0
 (Enter /home/alberto/src/g16/l202.exe)
                          Input orientation:                          
 ---------------------------------------------------------------------
 Center     Atomic      Atomic             Coordinates (Angstroms)
 Number     Number       Type             X           Y           Z
 ---------------------------------------------------------------------
      1          6           0       -1.676709   -0.155546    0.000000
      2          8           0       -0.993534   -1.155786    0.000000
      3          8           0       -1.173945    1.080177    0.000000
      4          1           0       -0.185940    1.035555    0.000000
      5          6           0       -3.180974   -0.156066    0.000000
      6          1           0       -3.550266   -1.175548    0.000000
      7          1           0       -3.549008    0.375205   -0.876745
      8          1           0       -3.549008    0.375205    0.876745
      9          1           0        3.818892   -1.080076    0.874205
     10          1           0        3.818892   -1.080076   -0.874205
     11          1           0        4.153835    0.443265    0.000000
     12          1           0        1.423460   -1.054170    0.000000
     13          6           0        3.571346   -0.473637    0.000000
     14          6           0        2.106241   -0.190482    0.000000
     15          8           0        1.641606    0.930420    0.000000
 ---------------------------------------------------------------------
                    Distance matrix (angstroms):
                    1          2          3          4          5
     1  C    0.000000
     2  O    1.211285   0.000000
     3  O    1.334085   2.243230   0.000000
     4  H    1.908170   2.335419   0.989012   0.000000
     5  C    1.504265   2.405065   2.357215   3.223382   0.000000
     6  H    2.133218   2.556808   3.276461   4.025874   1.084306
     7  H    2.134451   3.105329   2.628039   3.537650   1.089210
     8  H    2.134451   3.105329   2.628039   3.537650   1.089210
     9  H    5.640977   4.891769   5.509932   4.612895   7.114503
    10  H    5.640977   4.891769   5.509932   4.612895   7.114503
    11  H    5.861213   5.390025   5.365715   4.380006   7.359254
    12  H    3.227781   2.419129   3.361837   2.637635   4.691205
    13  C    5.257686   4.615566   4.993208   4.049057   6.759784
    14  C    3.783112   3.246601   3.517698   2.599473   5.287327
    15  O    3.491495   3.360984   2.819531   1.830567   4.943453
                    6          7          8          9         10
     6  H    0.000000
     7  H    1.781437   0.000000
     8  H    1.781437   1.753489   0.000000
     9  H    7.421444   7.711654   7.510246   0.000000
    10  H    7.421444   7.510246   7.711654   1.748409   0.000000
    11  H    7.872339   7.752877   7.752877   1.788012   1.788012
    12  H    4.975206   5.247592   5.247592   2.550098   2.550098
    13  C    7.156118   7.224171   7.224171   1.092374   1.092374
    14  C    5.741639   5.750698   5.750698   2.118675   2.118675
    15  O    5.602734   5.293337   5.293337   3.089806   3.089806
                   11         12         13         14         15
    11  H    0.000000
    12  H    3.114042   0.000000
    13  C    1.086280   2.224957   0.000000
    14  C    2.143426   1.100975   1.492216   0.000000
    15  O    2.559026   1.996543   2.386477   1.213387   0.000000
 Stoichiometry    C4H8O3
 Framework group  CS[SG(C4H4O3),X(H4)]
 Deg. of freedom    25
 Full point group                 CS      NOp   2
 Largest Abelian subgroup         CS      NOp   2
 Largest concise Abelian subgroup CS      NOp   2
                         Standard orientation:                         
 ---------------------------------------------------------------------
 Center     Atomic      Atomic             Coordinates (Angstroms)
 Number     Number       Type             X           Y           Z
 ---------------------------------------------------------------------
      1          6           0        1.718455    0.254268    0.000000
      2          8           0        1.275006   -0.872925    0.000000
      3          8           0        0.953299    1.347117    0.000000
      4          1           0       -0.000000    1.083741    0.000000
      5          6           0        3.185113    0.588522    0.000000
      6          1           0        3.772021   -0.323212    0.000000
      7          1           0        3.425688    1.188373    0.876745
      8          1           0        3.425688    1.188373   -0.876745
      9          1           0       -3.433588   -1.870078   -0.874205
     10          1           0       -3.433588   -1.870078    0.874205
     11          1           0       -4.099138   -0.459476    0.000000
     12          1           0       -1.103991   -1.311738    0.000000
     13          6           0       -3.327207   -1.223757    0.000000
     14          6           0       -1.961856   -0.621656    0.000000
     15          8           0       -1.758320    0.574538    0.000000
 ---------------------------------------------------------------------
 Rotational constants (GHZ):           7.5315344           0.9494476           0.8519402
 Leave Link  202 at Tue Oct 20 02:56:20 2020, MaxMem=   268435456 cpu:               0.0 elap:               0.0
 (Enter /home/alberto/src/g16/l301.exe)
 Standard basis: Aug-CC-pVDZ (5D, 7F)
 Ernie: Thresh=  0.10000D-02 Tol=  0.10000D-05 Strict=F.
 Ernie:  14 primitive shells out of 231 were deleted.
 There are   172 symmetry adapted cartesian basis functions of A'  symmetry.
 There are    75 symmetry adapted cartesian basis functions of A"  symmetry.
 There are   158 symmetry adapted basis functions of A'  symmetry.
 There are    75 symmetry adapted basis functions of A"  symmetry.
   233 basis functions,   389 primitive gaussians,   247 cartesian basis functions
    28 alpha electrons       28 beta electrons
       nuclear repulsion energy       290.0142011624 Hartrees.
 IExCor=    0 DFT=F Ex=HF Corr=None ExCW=0 ScaHFX=  1.000000
 ScaDFX=  1.000000  1.000000  1.000000  1.000000 ScalE2=  1.000000  1.000000
 IRadAn=      5 IRanWt=     -1 IRanGd=            0 ICorTp=0 IEmpDi=  4
 NAtoms=   15 NActive=   15 NUniq=   13 SFac= 1.33D+00 NAtFMM=   60 NAOKFM=F Big=F
 Integral buffers will be    131072 words long.
 Raffenetti 1 integral format.
 Two-electron integral symmetry is turned on.
 Leave Link  301 at Tue Oct 20 02:56:20 2020, MaxMem=   268435456 cpu:               0.1 elap:               0.0
 (Enter /home/alberto/src/g16/l302.exe)
 NPDir=0 NMtPBC=     1 NCelOv=     1 NCel=       1 NClECP=     1 NCelD=      1
         NCelK=      1 NCelE2=     1 NClLst=     1 CellRange=     0.0.
 One-electron integrals computed using PRISM.
 One-electron integral symmetry used in STVInt
 NBasis=   233 RedAO= T EigKep=  1.46D-05  NBF=   158    75
 NBsUse=   233 1.00D-06 EigRej= -1.00D+00 NBFU=   158    75
 Leave Link  302 at Tue Oct 20 02:56:20 2020, MaxMem=   268435456 cpu:               0.6 elap:               0.2
 (Enter /home/alberto/src/g16/l303.exe)
 DipDrv:  MaxL=1.
 Leave Link  303 at Tue Oct 20 02:56:20 2020, MaxMem=   268435456 cpu:               0.1 elap:               0.0
 (Enter /home/alberto/src/g16/l401.exe)
 ExpMin= 2.97D-02 ExpMax= 1.17D+04 ExpMxC= 4.01D+02 IAcc=3 IRadAn=         5 AccDes= 0.00D+00
 Harris functional with IExCor=  205 and IRadAn=       5 diagonalized for initial guess.
 HarFok:  IExCor=  205 AccDes= 0.00D+00 IRadAn=         5 IDoV= 1 UseB2=F ITyADJ=14
 ICtDFT=  3500011 ScaDFX=  1.000000  1.000000  1.000000  1.000000
 FoFCou: FMM=F IPFlag=           0 FMFlag=      100000 FMFlg1=           0
         NFxFlg=           0 DoJE=T BraDBF=F KetDBF=T FulRan=T
         wScrn=  0.000000 ICntrl=       500 IOpCl=  0 I1Cent=   200000004 NGrid=           0
         NMat0=    1 NMatS0=      1 NMatT0=    0 NMatD0=    1 NMtDS0=    0 NMtDT0=    0
 Petite list used in FoFCou.
 Harris En= -381.180638937418    
 JPrj=0 DoOrth=F DoCkMO=F.
 Initial guess orbital symmetries:
       Occupied  (A') (A') (A') (A') (A') (A') (A') (A') (A') (A')
                 (A') (A') (A') (A') (A') (A') (A') (A') (A") (A")
                 (A') (A') (A") (A') (A") (A") (A') (A')
       Virtual   (A") (A") (A') (A') (A') (A') (A") (A') (A") (A')
                 (A') (A') (A') (A") (A") (A') (A") (A') (A') (A')
                 (A') (A') (A') (A") (A") (A') (A") (A') (A') (A')
                 (A') (A") (A') (A') (A") (A') (A') (A') (A') (A")
                 (A') (A') (A") (A') (A') (A') (A') (A") (A') (A")
                 (A') (A") (A') (A") (A') (A') (A') (A") (A') (A")
                 (A') (A') (A") (A") (A') (A") (A') (A') (A') (A")
                 (A') (A') (A') (A') (A') (A") (A') (A") (A") (A')
                 (A") (A') (A') (A") (A') (A') (A") (A") (A') (A')
                 (A') (A') (A') (A") (A') (A') (A') (A") (A') (A")
                 (A') (A') (A') (A") (A') (A') (A') (A") (A") (A')
                 (A') (A") (A') (A") (A") (A') (A') (A") (A') (A")
                 (A') (A") (A') (A') (A') (A') (A") (A') (A") (A')
                 (A') (A') (A") (A') (A") (A') (A") (A") (A') (A')
                 (A") (A") (A') (A") (A') (A') (A") (A') (A') (A')
                 (A") (A") (A') (A') (A') (A") (A") (A') (A') (A")
                 (A') (A') (A') (A") (A') (A") (A') (A') (A') (A')
                 (A') (A") (A') (A") (A') (A') (A') (A') (A') (A")
                 (A") (A') (A') (A') (A') (A') (A') (A') (A') (A')
                 (A") (A") (A") (A") (A') (A") (A') (A") (A') (A')
                 (A') (A') (A') (A') (A')
 The electronic state of the initial guess is 1-A'.
 Leave Link  401 at Tue Oct 20 02:56:21 2020, MaxMem=   268435456 cpu:               2.0 elap:               0.6
 (Enter /home/alberto/src/g16/l502.exe)
 Integral symmetry usage will be decided dynamically.
 Closed shell SCF:
 Using DIIS extrapolation, IDIIS=  1040.
 NGot=   268435456 LenX=   268308914 LenY=   268247464
 Requested convergence on RMS density matrix=1.00D-06 within 128 cycles.
 Requested convergence on MAX density matrix=1.00D-04.
 Requested convergence on             energy=1.00D-04.
 No special actions if energy rises.
 Fock matrices will be formed incrementally for  20 cycles.

 Cycle   1  Pass 0  IDiag  1:
 FoFJK:  IHMeth= 1 ICntrl=       0 DoSepK=F KAlg= 0 I1Cent=           0 FoldK=F
 IRaf= 960000000 NMat=       1 IRICut=       1 DoRegI=T DoRafI=F ISym2E= 1 IDoP0=0 IntGTp=1.
 FoFCou: FMM=F IPFlag=           0 FMFlag=      100000 FMFlg1=           0
         NFxFlg=           0 DoJE=F BraDBF=F KetDBF=F FulRan=T
         wScrn=  0.000000 ICntrl=         0 IOpCl=  0 I1Cent=           0 NGrid=           0
         NMat0=    1 NMatS0=      1 NMatT0=    0 NMatD0=    1 NMtDS0=    0 NMtDT0=    0
 Petite list used in FoFCou.
 E= -380.505913925162    
 DIIS: error= 2.47D-02 at cycle   1 NSaved=   1.
 NSaved= 1 IEnMin= 1 EnMin= -380.505913925162     IErMin= 1 ErrMin= 2.47D-02
 ErrMax= 2.47D-02  0.00D+00 EMaxC= 1.00D-01 BMatC= 4.20D-01 BMatP= 4.20D-01
 IDIUse=3 WtCom= 7.53D-01 WtEn= 2.47D-01
 Coeff-Com:  0.100D+01
 Coeff-En:   0.100D+01
 Coeff:      0.100D+01
 Gap=     0.459 Goal=   None    Shift=    0.000
 GapD=    0.459 DampG=2.000 DampE=0.500 DampFc=1.0000 IDamp=-1.
 RMSDP=8.83D-03 MaxDP=2.42D-01              OVMax= 1.10D-01

 Cycle   2  Pass 0  IDiag  1:
 RMSU=  7.34D-03    CP:  7.68D-01
 E= -380.749942508052     Delta-E=       -0.244028582890 Rises=F Damp=F
 DIIS: error= 1.04D-02 at cycle   2 NSaved=   2.
 NSaved= 2 IEnMin= 2 EnMin= -380.749942508052     IErMin= 2 ErrMin= 1.04D-02
 ErrMax= 1.04D-02  0.00D+00 EMaxC= 1.00D-01 BMatC= 6.39D-02 BMatP= 4.20D-01
 IDIUse=3 WtCom= 8.96D-01 WtEn= 1.04D-01
 Coeff-Com:  0.238D+00 0.762D+00
 Coeff-En:   0.000D+00 0.100D+01
 Coeff:      0.213D+00 0.787D+00
 Gap=     0.490 Goal=   None    Shift=    0.000
 RMSDP=1.56D-03 MaxDP=5.90D-02 DE=-2.44D-01 OVMax= 4.21D-02

 Cycle   3  Pass 0  IDiag  1:
 RMSU=  1.46D-03    CP:  7.60D-01  9.29D-01
 E= -380.796912941448     Delta-E=       -0.046970433395 Rises=F Damp=F
 DIIS: error= 3.84D-03 at cycle   3 NSaved=   3.
 NSaved= 3 IEnMin= 3 EnMin= -380.796912941448     IErMin= 3 ErrMin= 3.84D-03
 ErrMax= 3.84D-03  0.00D+00 EMaxC= 1.00D-01 BMatC= 4.67D-03 BMatP= 6.39D-02
 IDIUse=3 WtCom= 9.62D-01 WtEn= 3.84D-02
 Coeff-Com: -0.117D-01 0.169D+00 0.843D+00
 Coeff-En:   0.000D+00 0.000D+00 0.100D+01
 Coeff:     -0.112D-01 0.163D+00 0.849D+00
 Gap=     0.470 Goal=   None    Shift=    0.000
 RMSDP=3.34D-04 MaxDP=1.60D-02 DE=-4.70D-02 OVMax= 1.97D-02

 Cycle   4  Pass 0  IDiag  1:
 RMSU=  3.09D-04    CP:  7.56D-01  9.40D-01  1.02D+00
 E= -380.800186551806     Delta-E=       -0.003273610358 Rises=F Damp=F
 DIIS: error= 9.95D-04 at cycle   4 NSaved=   4.
 NSaved= 4 IEnMin= 4 EnMin= -380.800186551806     IErMin= 4 ErrMin= 9.95D-04
 ErrMax= 9.95D-04  0.00D+00 EMaxC= 1.00D-01 BMatC= 4.66D-04 BMatP= 4.67D-03
 IDIUse=3 WtCom= 9.90D-01 WtEn= 9.95D-03
 Coeff-Com: -0.155D-01 0.114D-01 0.278D+00 0.726D+00
 Coeff-En:   0.000D+00 0.000D+00 0.000D+00 0.100D+01
 Coeff:     -0.153D-01 0.113D-01 0.275D+00 0.729D+00
 Gap=     0.471 Goal=   None    Shift=    0.000
 RMSDP=1.07D-04 MaxDP=3.56D-03 DE=-3.27D-03 OVMax= 4.57D-03

 Cycle   5  Pass 0  IDiag  1:
 RMSU=  8.29D-05    CP:  7.54D-01  9.45D-01  1.05D+00  9.47D-01
 E= -380.800634258490     Delta-E=       -0.000447706685 Rises=F Damp=F
 DIIS: error= 2.78D-04 at cycle   5 NSaved=   5.
 NSaved= 5 IEnMin= 5 EnMin= -380.800634258490     IErMin= 5 ErrMin= 2.78D-04
 ErrMax= 2.78D-04  0.00D+00 EMaxC= 1.00D-01 BMatC= 2.07D-05 BMatP= 4.66D-04
 IDIUse=3 WtCom= 9.97D-01 WtEn= 2.78D-03
 Coeff-Com:  0.237D-02-0.141D-01-0.973D-01-0.583D-01 0.117D+01
 Coeff-En:   0.000D+00 0.000D+00 0.000D+00 0.000D+00 0.100D+01
 Coeff:      0.237D-02-0.140D-01-0.971D-01-0.581D-01 0.117D+01
 Gap=     0.471 Goal=   None    Shift=    0.000
 RMSDP=6.10D-05 MaxDP=1.83D-03 DE=-4.48D-04 OVMax= 3.15D-03

 Cycle   6  Pass 0  IDiag  1:
 RMSU=  2.39D-05    CP:  7.54D-01  9.44D-01  1.07D+00  1.06D+00  1.24D+00
 E= -380.800682897035     Delta-E=       -0.000048638545 Rises=F Damp=F
 DIIS: error= 7.29D-05 at cycle   6 NSaved=   6.
 NSaved= 6 IEnMin= 6 EnMin= -380.800682897035     IErMin= 6 ErrMin= 7.29D-05
 ErrMax= 7.29D-05  0.00D+00 EMaxC= 1.00D-01 BMatC= 3.83D-06 BMatP= 2.07D-05
 IDIUse=1 WtCom= 1.00D+00 WtEn= 0.00D+00
 Coeff-Com:  0.209D-02-0.569D-02-0.536D-01-0.914D-01 0.338D+00 0.811D+00
 Coeff:      0.209D-02-0.569D-02-0.536D-01-0.914D-01 0.338D+00 0.811D+00
 Gap=     0.471 Goal=   None    Shift=    0.000
 RMSDP=1.66D-05 MaxDP=4.82D-04 DE=-4.86D-05 OVMax= 7.27D-04

 Cycle   7  Pass 0  IDiag  1:
 RMSU=  8.08D-06    CP:  7.54D-01  9.44D-01  1.08D+00  1.09D+00  1.32D+00
                    CP:  1.21D+00
 E= -380.800688696963     Delta-E=       -0.000005799928 Rises=F Damp=F
 DIIS: error= 4.49D-05 at cycle   7 NSaved=   7.
 NSaved= 7 IEnMin= 7 EnMin= -380.800688696963     IErMin= 7 ErrMin= 4.49D-05
 ErrMax= 4.49D-05  0.00D+00 EMaxC= 1.00D-01 BMatC= 4.07D-07 BMatP= 3.83D-06
 IDIUse=1 WtCom= 1.00D+00 WtEn= 0.00D+00
 Coeff-Com: -0.478D-03 0.216D-02 0.203D-01 0.883D-02-0.176D+00-0.948D-01
 Coeff-Com:  0.124D+01
 Coeff:     -0.478D-03 0.216D-02 0.203D-01 0.883D-02-0.176D+00-0.948D-01
 Coeff:      0.124D+01
 Gap=     0.471 Goal=   None    Shift=    0.000
 RMSDP=7.27D-06 MaxDP=3.21D-04 DE=-5.80D-06 OVMax= 6.62D-04

 Initial convergence to 1.0D-05 achieved.  Increase integral accuracy.
 Cycle   8  Pass 1  IDiag  1:
 E= -380.800689906160     Delta-E=       -0.000001209197 Rises=F Damp=F
 DIIS: error= 8.93D-06 at cycle   1 NSaved=   1.
 NSaved= 1 IEnMin= 1 EnMin= -380.800689906160     IErMin= 1 ErrMin= 8.93D-06
 ErrMax= 8.93D-06  0.00D+00 EMaxC= 1.00D-01 BMatC= 5.22D-08 BMatP= 5.22D-08
 IDIUse=1 WtCom= 1.00D+00 WtEn= 0.00D+00
 Coeff-Com:  0.100D+01
 Coeff:      0.100D+01
 Gap=     0.471 Goal=   None    Shift=    0.000
 RMSDP=7.27D-06 MaxDP=3.21D-04 DE=-1.21D-06 OVMax= 1.19D-04

 Cycle   9  Pass 1  IDiag  1:
 RMSU=  1.95D-06    CP:  1.00D+00
 E= -380.800690024580     Delta-E=       -0.000000118420 Rises=F Damp=F
 DIIS: error= 9.02D-06 at cycle   2 NSaved=   2.
 NSaved= 2 IEnMin= 2 EnMin= -380.800690024580     IErMin= 1 ErrMin= 8.93D-06
 ErrMax= 9.02D-06  0.00D+00 EMaxC= 1.00D-01 BMatC= 1.32D-08 BMatP= 5.22D-08
 IDIUse=1 WtCom= 1.00D+00 WtEn= 0.00D+00
 Coeff-Com: -0.668D-01 0.107D+01
 Coeff:     -0.668D-01 0.107D+01
 Gap=     0.471 Goal=   None    Shift=    0.000
 RMSDP=1.00D-06 MaxDP=6.00D-05 DE=-1.18D-07 OVMax= 1.20D-04

 Cycle  10  Pass 1  IDiag  1:
 RMSU=  5.57D-07    CP:  1.00D+00  1.42D+00
 E= -380.800690063896     Delta-E=       -0.000000039316 Rises=F Damp=F
 DIIS: error= 4.33D-06 at cycle   3 NSaved=   3.
 NSaved= 3 IEnMin= 3 EnMin= -380.800690063896     IErMin= 3 ErrMin= 4.33D-06
 ErrMax= 4.33D-06  0.00D+00 EMaxC= 1.00D-01 BMatC= 8.18D-09 BMatP= 1.32D-08
 IDIUse=1 WtCom= 1.00D+00 WtEn= 0.00D+00
 Coeff-Com: -0.507D+00 0.361D+00 0.115D+01
 Coeff:     -0.507D+00 0.361D+00 0.115D+01
 Gap=     0.471 Goal=   None    Shift=    0.000
 RMSDP=1.09D-06 MaxDP=3.71D-05 DE=-3.93D-08 OVMax= 8.54D-05

 Cycle  11  Pass 1  IDiag  1:
 RMSU=  2.93D-07    CP:  1.00D+00  1.96D+00  1.33D+00
 E= -380.800690082422     Delta-E=       -0.000000018526 Rises=F Damp=F
 DIIS: error= 8.44D-07 at cycle   4 NSaved=   4.
 NSaved= 4 IEnMin= 4 EnMin= -380.800690082422     IErMin= 4 ErrMin= 8.44D-07
 ErrMax= 8.44D-07  0.00D+00 EMaxC= 1.00D-01 BMatC= 1.24D-10 BMatP= 8.18D-09
 IDIUse=1 WtCom= 1.00D+00 WtEn= 0.00D+00
 Coeff-Com: -0.657D-01-0.988D-03 0.138D+00 0.929D+00
 Coeff:     -0.657D-01-0.988D-03 0.138D+00 0.929D+00
 Gap=     0.471 Goal=   None    Shift=    0.000
 RMSDP=1.19D-07 MaxDP=6.70D-06 DE=-1.85D-08 OVMax= 1.23D-05

 SCF Done:  E(RHF) =  -380.800690082     A.U. after   11 cycles
            NFock= 11  Conv=0.12D-06     -V/T= 2.0014
 KE= 3.802808119197D+02 PE=-1.476109943678D+03 EE= 4.250142405138D+02
 Leave Link  502 at Tue Oct 20 02:56:40 2020, MaxMem=   268435456 cpu:              71.2 elap:              19.4
 (Enter /home/alberto/src/g16/l601.exe)
 Copying SCF densities to generalized density rwf, IOpCl= 0 IROHF=0.

 **********************************************************************

            Population analysis using the SCF density.

 **********************************************************************

 Orbital symmetries:
       Occupied  (A') (A') (A') (A') (A') (A') (A') (A') (A') (A')
                 (A') (A') (A') (A') (A') (A') (A') (A') (A") (A")
                 (A') (A') (A') (A") (A") (A") (A') (A')
       Virtual   (A') (A') (A") (A') (A") (A') (A') (A') (A') (A")
                 (A') (A") (A') (A") (A') (A') (A") (A') (A') (A")
                 (A') (A') (A") (A') (A') (A") (A') (A") (A') (A')
                 (A') (A') (A") (A') (A') (A") (A') (A") (A') (A')
                 (A') (A") (A') (A') (A') (A") (A') (A') (A") (A")
                 (A') (A') (A") (A') (A') (A") (A') (A') (A") (A')
                 (A") (A') (A") (A') (A') (A') (A") (A') (A') (A")
                 (A') (A") (A') (A') (A') (A") (A') (A") (A') (A')
                 (A") (A') (A') (A') (A") (A') (A") (A') (A") (A')
                 (A') (A') (A') (A') (A") (A') (A") (A') (A') (A')
                 (A") (A') (A') (A') (A") (A') (A') (A") (A') (A")
                 (A') (A") (A") (A') (A') (A") (A') (A") (A") (A')
                 (A") (A') (A') (A') (A') (A') (A') (A") (A') (A')
                 (A") (A') (A') (A") (A") (A') (A') (A") (A") (A')
                 (A") (A") (A") (A') (A") (A') (A') (A') (A') (A')
                 (A") (A") (A') (A") (A') (A") (A') (A') (A") (A')
                 (A') (A') (A") (A') (A') (A") (A') (A') (A') (A')
                 (A') (A") (A") (A') (A') (A') (A') (A') (A') (A")
                 (A') (A') (A") (A') (A') (A') (A') (A') (A') (A')
                 (A") (A") (A") (A") (A') (A") (A') (A") (A') (A')
                 (A') (A') (A') (A') (A')
 The electronic state is 1-A'.
 Alpha  occ. eigenvalues --  -20.59512 -20.58487 -20.54587 -11.38430 -11.35348
 Alpha  occ. eigenvalues --  -11.25397 -11.24081  -1.45193  -1.41550  -1.34841
 Alpha  occ. eigenvalues --   -1.03298  -1.01528  -0.81747  -0.81013  -0.70274
 Alpha  occ. eigenvalues --   -0.68751  -0.66543  -0.63833  -0.63603  -0.61252
 Alpha  occ. eigenvalues --   -0.57340  -0.56749  -0.55119  -0.54624  -0.51965
 Alpha  occ. eigenvalues --   -0.46643  -0.44519  -0.43805
 Alpha virt. eigenvalues --    0.03317   0.04170   0.05340   0.05424   0.06339
 Alpha virt. eigenvalues --    0.06438   0.06921   0.09133   0.10046   0.10284
 Alpha virt. eigenvalues --    0.12136   0.13408   0.14601   0.14943   0.15167
 Alpha virt. eigenvalues --    0.16020   0.16035   0.16211   0.16876   0.17096
 Alpha virt. eigenvalues --    0.18226   0.18527   0.20000   0.22643   0.23598
 Alpha virt. eigenvalues --    0.23913   0.25791   0.25981   0.26164   0.26307
 Alpha virt. eigenvalues --    0.27692   0.29132   0.29175   0.31166   0.32190
 Alpha virt. eigenvalues --    0.32306   0.34094   0.34686   0.36011   0.38225
 Alpha virt. eigenvalues --    0.39478   0.39610   0.39902   0.41129   0.41438
 Alpha virt. eigenvalues --    0.42908   0.43198   0.44095   0.44140   0.45552
 Alpha virt. eigenvalues --    0.46409   0.46958   0.47368   0.47622   0.48935
 Alpha virt. eigenvalues --    0.49942   0.51013   0.52740   0.52851   0.54497
 Alpha virt. eigenvalues --    0.55431   0.57804   0.58250   0.58712   0.59439
 Alpha virt. eigenvalues --    0.60442   0.60758   0.60999   0.63309   0.64221
 Alpha virt. eigenvalues --    0.65454   0.65459   0.66728   0.67356   0.67762
 Alpha virt. eigenvalues --    0.69194   0.69333   0.72234   0.72553   0.73844
 Alpha virt. eigenvalues --    0.74142   0.75103   0.76023   0.77018   0.78618
 Alpha virt. eigenvalues --    0.79129   0.80230   0.81841   0.82812   0.88002
 Alpha virt. eigenvalues --    0.90865   0.93407   0.94845   0.96210   0.96403
 Alpha virt. eigenvalues --    0.99113   1.02200   1.02700   1.04595   1.07380
 Alpha virt. eigenvalues --    1.07943   1.09162   1.10460   1.10920   1.11146
 Alpha virt. eigenvalues --    1.13661   1.14527   1.18108   1.20834   1.21000
 Alpha virt. eigenvalues --    1.23894   1.27222   1.30095   1.30425   1.31347
 Alpha virt. eigenvalues --    1.31558   1.38016   1.39207   1.40064   1.40145
 Alpha virt. eigenvalues --    1.44309   1.47020   1.50420   1.53330   1.53630
 Alpha virt. eigenvalues --    1.59245   1.63428   1.65306   1.65638   1.68438
 Alpha virt. eigenvalues --    1.68899   1.71897   1.73326   1.74558   1.78208
 Alpha virt. eigenvalues --    1.79115   1.80642   1.82245   1.85572   1.86295
 Alpha virt. eigenvalues --    1.86528   1.88360   1.90330   1.94195   1.99051
 Alpha virt. eigenvalues --    2.00560   2.01688   2.04881   2.06808   2.07098
 Alpha virt. eigenvalues --    2.07209   2.11181   2.11921   2.19403   2.19602
 Alpha virt. eigenvalues --    2.20939   2.21936   2.26330   2.27140   2.29667
 Alpha virt. eigenvalues --    2.30290   2.33904   2.34962   2.35249   2.38929
 Alpha virt. eigenvalues --    2.38933   2.39718   2.45293   2.49762   2.54955
 Alpha virt. eigenvalues --    2.61877   2.64155   2.65935   2.68397   2.75332
 Alpha virt. eigenvalues --    2.79998   2.84881   2.86415   2.88561   2.94369
 Alpha virt. eigenvalues --    2.94528   2.95033   2.96808   2.99283   3.07253
 Alpha virt. eigenvalues --    3.09380   3.15316   3.23865   3.36766   3.40785
 Alpha virt. eigenvalues --    3.69591   3.74587   3.75657   3.77684   3.79687
 Alpha virt. eigenvalues --    3.81106   3.84963   3.86131   3.88121   3.98334
 Alpha virt. eigenvalues --    4.08141   4.09321   4.15943   4.23093   4.54988
          Condensed to atoms (all electrons):
               1          2          3          4          5          6
     1  C    4.533909   0.366651   0.088524  -0.066259   0.380455   0.005427
     2  O    0.366651   8.523144  -0.037780  -0.053339  -0.045167   0.000076
     3  O    0.088524  -0.037780   8.496371   0.189922  -0.021709   0.024597
     4  H   -0.066259  -0.053339   0.189922   0.612295   0.014010   0.005884
     5  C    0.380455  -0.045167  -0.021709   0.014010   4.340871   0.280862
     6  H    0.005427   0.000076   0.024597   0.005884   0.280862   0.871188
     7  H   -0.003577   0.006788  -0.010218  -0.003594   0.333316  -0.077217
     8  H   -0.003577   0.006788  -0.010218  -0.003594   0.333316  -0.077217
     9  H   -0.001722   0.000321   0.000884   0.000496  -0.000116   0.000029
    10  H   -0.001722   0.000321   0.000884   0.000496  -0.000116   0.000029
    11  H    0.002116  -0.000865  -0.000367  -0.001835   0.000023   0.000007
    12  H   -0.005420  -0.031115  -0.007917  -0.012109  -0.006828  -0.000081
    13  C   -0.007855  -0.005723   0.004331  -0.008900  -0.003424   0.000242
    14  C   -0.001403   0.009146   0.021262  -0.009982  -0.003348   0.000004
    15  O    0.013680  -0.005005  -0.079771   0.039599   0.003454   0.000012
               7          8          9         10         11         12
     1  C   -0.003577  -0.003577  -0.001722  -0.001722   0.002116  -0.005420
     2  O    0.006788   0.006788   0.000321   0.000321  -0.000865  -0.031115
     3  O   -0.010218  -0.010218   0.000884   0.000884  -0.000367  -0.007917
     4  H   -0.003594  -0.003594   0.000496   0.000496  -0.001835  -0.012109
     5  C    0.333316   0.333316  -0.000116  -0.000116   0.000023  -0.006828
     6  H   -0.077217  -0.077217   0.000029   0.000029   0.000007  -0.000081
     7  H    0.786182  -0.070225  -0.000037   0.000011   0.000008  -0.000104
     8  H   -0.070225   0.786182   0.000011  -0.000037   0.000008  -0.000104
     9  H   -0.000037   0.000011   0.812677  -0.060393  -0.115671  -0.032342
    10  H    0.000011  -0.000037  -0.060393   0.812677  -0.115671  -0.032342
    11  H    0.000008   0.000008  -0.115671  -0.115671   0.980852   0.038153
    12  H   -0.000104  -0.000104  -0.032342  -0.032342   0.038153   1.180120
    13  C   -0.000177  -0.000177   0.384797   0.384797   0.281735   0.011953
    14  C    0.001234   0.001234  -0.058117  -0.058117   0.037518   0.098339
    15  O    0.000261   0.000261   0.018132   0.018132  -0.016106  -0.022746
              13         14         15
     1  C   -0.007855  -0.001403   0.013680
     2  O   -0.005723   0.009146  -0.005005
     3  O    0.004331   0.021262  -0.079771
     4  H   -0.008900  -0.009982   0.039599
     5  C   -0.003424  -0.003348   0.003454
     6  H    0.000242   0.000004   0.000012
     7  H   -0.000177   0.001234   0.000261
     8  H   -0.000177   0.001234   0.000261
     9  H    0.384797  -0.058117   0.018132
    10  H    0.384797  -0.058117   0.018132
    11  H    0.281735   0.037518  -0.016106
    12  H    0.011953   0.098339  -0.022746
    13  C    4.604570   0.199319  -0.023966
    14  C    0.199319   4.821746   0.216147
    15  O   -0.023966   0.216147   8.616052
 Mulliken charges:
               1
     1  C    0.700770
     2  O   -0.734241
     3  O   -0.658792
     4  H    0.296907
     5  C    0.394400
     6  H   -0.033842
     7  H    0.037348
     8  H    0.037348
     9  H    0.051052
    10  H    0.051052
    11  H   -0.089906
    12  H   -0.177457
    13  C    0.178478
    14  C    0.725018
    15  O   -0.778136
 Sum of Mulliken charges =  -0.00000
 Mulliken charges with hydrogens summed into heavy atoms:
               1
     1  C    0.700770
     2  O   -0.734241
     3  O   -0.361885
     5  C    0.435254
    13  C    0.190677
    14  C    0.547560
    15  O   -0.778136
 Electronic spatial extent (au):  <R**2>=           1320.6370
 Charge=             -0.0000 electrons
 Dipole moment (field-independent basis, Debye):
    X=             -1.0741    Y=             -1.4659    Z=              0.0000  Tot=              1.8173
 Quadrupole moment (field-independent basis, Debye-Ang):
   XX=            -29.9416   YY=            -45.4836   ZZ=            -41.2158
   XY=              9.0306   XZ=             -0.0000   YZ=             -0.0000
 Traceless Quadrupole moment (field-independent basis, Debye-Ang):
   XX=              8.9387   YY=             -6.6033   ZZ=             -2.3355
   XY=              9.0306   XZ=             -0.0000   YZ=             -0.0000
 Octapole moment (field-independent basis, Debye-Ang**2):
  XXX=              1.8100  YYY=             -2.2202  ZZZ=              0.0000  XYY=             -8.7528
  XXY=             -7.5375  XXZ=             -0.0000  XZZ=              0.2992  YZZ=              0.7043
  YYZ=              0.0000  XYZ=              0.0000
 Hexadecapole moment (field-independent basis, Debye-Ang**3):
 XXXX=          -1271.6419 YYYY=           -271.5343 ZZZZ=            -50.8577 XXXY=           -100.6976
 XXXZ=             -0.0000 YYYX=           -145.2660 YYYZ=             -0.0000 ZZZX=             -0.0000
 ZZZY=             -0.0000 XXYY=           -271.7866 XXZZ=           -236.4065 YYZZ=            -49.3614
 XXYZ=             -0.0000 YYXZ=             -0.0000 ZZXY=            -42.2135
 N-N= 2.900142011624D+02 E-N=-1.476109899605D+03  KE= 3.802808119197D+02
 Symmetry A'   KE= 3.648262134774D+02
 Symmetry A"   KE= 1.545459844235D+01
 No NMR shielding tensors so no spin-rotation constants.
 Leave Link  601 at Tue Oct 20 02:56:41 2020, MaxMem=   268435456 cpu:               0.7 elap:               0.2
 (Enter /home/alberto/src/g16/l9999.exe)
 1\1\GINC-ARIEL\SP\RHF\Aug-CC-pVDZ\C4H8O3\ALBERTO\20-Oct-2020\0\\#p hf 
 aug-cc-pvdz output=wfx scf=(conver=6) int=(grid=ultrafine)\\title\\0,1
 \C,0,-1.67670935,-0.155545695,0.\O,0,-0.99353362,-1.155786393,0.\O,0,-
 1.17394533,1.080177302,0.\H,0,-0.185940107,1.03555494,0.\C,0,-3.180974
 158,-0.15606596,0.\H,0,-3.550265591,-1.175547772,0.\H,0,-3.549007807,0
 .375205388,-0.876744631\H,0,-3.549007807,0.375205388,0.876744631\H,0,3
 .818891652,-1.08007572,0.874204506\H,0,3.818891652,-1.08007572,-0.8742
 04506\H,0,4.153834695,0.443265227,0.\H,0,1.423459707,-1.054169526,0.\C
 ,0,3.571345996,-0.473637296,0.\C,0,2.106241039,-0.190481958,0.\O,0,1.6
 41605591,0.930419782,0.\\Version=ES64L-G16RevA.03\State=1-A'\HF=-380.8
 006901\RMSD=1.186e-07\Dipole=0.5403276,-0.4682289,0.\Quadrupole=8.9868
 512,-7.2504936,-1.7363576,-3.5420291,0.,0.\PG=CS [SG(C4H4O3),X(H4)]\\@

 Writing a WFNX file to "1.001_OH-O__aceticacid--acetaldehyde_105.wfx"


 OLD AGE AND TREACHERY WILL ALWAYS PREVAIL OVER YOUTH AND SKILL.
 Job cpu time:       0 days  0 hours  1 minutes 15.1 seconds.
 Elapsed time:       0 days  0 hours  0 minutes 20.5 seconds.
 File lengths (MBytes):  RWF=     36 Int=      0 D2E=      0 Chk=      4 Scr=      1
 Normal termination of Gaussian 16 at Tue Oct 20 02:56:41 2020.
