
     Program PWSCF v.5.3.0 (svn rev. 11974) starts on 12May2016 at 18:59: 0 

     This program is part of the open-source Quantum ESPRESSO suite
     for quantum simulation of materials; please cite
         "P. Giannozzi et al., J. Phys.:Condens. Matter 21 395502 (2009);
          URL http://www.quantum-espresso.org", 
     in publications or presentations arising from this work. More details at
     http://www.quantum-espresso.org/quote

     Parallel version (MPI), running on     4 processors
     R & G space division:  proc/nbgrp/npool/nimage =       4
     Waiting for input...
     Reading input from standard input
     Message from routine read_cards :
     DEPRECATED: no units specified in CELL_PARAMETERS card

     Current dimensions of program PWSCF are:
     Max number of different atomic species (ntypx) = 10
     Max number of k-points (npk) =  40000
     Max angular momentum in pseudopotentials (lmaxx) =  3
     Message from routine iosys:
     xdm is obsolete, use "vdw_corr='xdm'" instead
               file h.UPF: wavefunction(s)  1S renormalized
               file c.UPF: wavefunction(s)  2P renormalized
               file n.UPF: wavefunction(s)  2P renormalized

     Subspace diagonalization in iterative solution of the eigenvalue problem:
     a serial algorithm will be used

 
     Parallelization info
     --------------------
     sticks:   dense  smooth     PW     G-vecs:    dense   smooth      PW
     Min        1917     770    221               106530    26965    4121
     Max        1918     771    222               106533    26976    4122
     Sum        7669    3081    887               426123   107877   16487
 

     Title: 
     crystal                                                                    


     bravais-lattice index     =            0
     lattice parameter (alat)  =       1.0000  a.u.
     unit-cell volume          =    1115.8440 (a.u.)^3
     number of atoms/cell      =           22
     number of atomic types    =            3
     number of electrons       =        56.00
     number of Kohn-Sham states=           28
     kinetic-energy cutoff     =      80.0000  Ry
     charge density cutoff     =     800.0000  Ry
     convergence threshold     =      1.0E-08
     mixing beta               =       0.7000
     number of iterations used =            8  plain     mixing
     Exchange-correlation      =  SLA  PW   B86B PBC ( 1  4 22  4 0 0)
     nstep                     =           50


     celldm(1)=   1.000000  celldm(2)=   0.000000  celldm(3)=   0.000000
     celldm(4)=   0.000000  celldm(5)=   0.000000  celldm(6)=   0.000000

     crystal axes: (cart. coord. in units of alat)
               a(1) = (  11.317244  -0.000006  -0.000018 )  
               a(2) = (  -3.772380  10.670027  -0.000018 )  
               a(3) = (  -3.772385  -5.334944   9.240558 )  

     reciprocal axes: (cart. coord. in units 2 pi/alat)
               b(1) = (  0.088361  0.031240  0.054109 )  
               b(2) = (  0.000000  0.093721  0.054109 )  
               b(3) = (  0.000000  0.000000  0.108219 )  


     PseudoPot. # 1 for  H read from file:
     ./h.UPF
     MD5 check sum: a05c38eace8e4bf5ff015d364fdf499b
     Pseudo is Projector augmented-wave, Zval =  1.0
     Generated using "atomic" code by A. Dal Corso  v.5.0.2 svn rev. 10467M
     Shape of augmentation charge: PSQ
     Using radial grid of  929 points,  2 beta functions with: 
                l(1) =   0
                l(2) =   0
     Q(r) pseudized with 0 coefficients 


     PseudoPot. # 2 for  C read from file:
     ./c.UPF
     MD5 check sum: d23c832541b58f97580b3287d177e92c
     Pseudo is Projector augmented-wave + core cor, Zval =  4.0
     Generated using "atomic" code by A. Dal Corso  v.5.0.2 svn rev. 10467M
     Shape of augmentation charge: BESSEL
     Using radial grid of 1073 points,  4 beta functions with: 
                l(1) =   0
                l(2) =   0
                l(3) =   1
                l(4) =   1
     Q(r) pseudized with 0 coefficients 


     PseudoPot. # 3 for  N read from file:
     ./n.UPF
     MD5 check sum: af778723f421ce17622347cbf03a6d58
     Pseudo is Projector augmented-wave + core cor, Zval =  5.0
     Generated using "atomic" code by A. Dal Corso  v.5.0.2 svn rev. 10467M
     Shape of augmentation charge: PSQ
     Using radial grid of 1085 points,  4 beta functions with: 
                l(1) =   0
                l(2) =   0
                l(3) =   1
                l(4) =   1
     Q(r) pseudized with 0 coefficients 


     atomic species   valence    mass     pseudopotential
        h              1.00     1.00794      H( 1.00)
        c              4.00    12.01070      C( 1.00)
        n              5.00    14.00670      N( 1.00)

     No symmetry found



   Cartesian axes

     site n.     atom                  positions (alat units)
         1           h   tau(   1) = (  -2.5279848   0.3143228   3.9467707  )
         2           h   tau(   2) = (  -3.6277954   4.0385861   6.9949690  )
         3           h   tau(   3) = (  -2.5279834   3.2608622   2.2455648  )
         4           h   tau(   4) = (   4.9114232   3.0563705   5.2937313  )
         5           h   tau(   5) = (   3.9170176  -1.2964716   2.2455652  )
         6           h   tau(   6) = (   3.9170198   2.5929525  -0.0000179  )
         7           h   tau(   7) = (   1.1389970  -2.2786423   3.9467749  )
         8           h   tau(   8) = (   1.1389970   4.5573268  -0.0000176  )
         9           h   tau(   9) = (   1.2444517   5.6493287   5.2937342  )
        10           h   tau(  10) = (   5.0168668  -2.0741415   6.9949682  )
        11           h   tau(  11) = (   5.0168712   7.0949115   1.7011559  )
        12           h   tau(  12) = (   1.2444518   1.7599182   7.5393136  )
        13           c   tau(  13) = (  -1.8427927   1.3030897   2.2569895  )
        14           c   tau(  14) = (  -5.7018984   4.0320229   6.9835982  )
        15           c   tau(  15) = (   1.8428331  -1.3030462   2.2569837  )
        16           c   tau(  16) = (   1.8428328   2.6061291  -0.0000043  )
        17           c   tau(  17) = (   5.7020416  -4.0318339   6.9835912  )
        18           c   tau(  18) = (   5.7020456   8.0638887   0.0000452  )
        19           n   tau(  19) = (   0.9475614   1.3400567   2.3210231  )
        20           n   tau(  20) = (  -2.8248592   7.9899441  -0.0000363  )
        21           n   tau(  21) = (   8.4746009  -0.0000177  -0.0000369  )
        22           n   tau(  22) = (  -2.8248623  -3.9949413   6.9195154  )

     number of k points=    32
                       cart. coord. in units 2pi/alat
        k(    1) = (   0.0110451   0.0156201   0.0270545), wk =   0.0625000
        k(    2) = (   0.0110452   0.0156202   0.0541092), wk =   0.0625000
        k(    3) = (   0.0110451   0.0156200  -0.0270549), wk =   0.0625000
        k(    4) = (   0.0110451   0.0156200  -0.0000002), wk =   0.0625000
        k(    5) = (   0.0110452   0.0390503   0.0405817), wk =   0.0625000
        k(    6) = (   0.0110452   0.0390503   0.0676364), wk =   0.0625000
        k(    7) = (   0.0110451   0.0390501  -0.0135277), wk =   0.0625000
        k(    8) = (   0.0110451   0.0390502   0.0135270), wk =   0.0625000
        k(    9) = (   0.0110451  -0.0312402   0.0000002), wk =   0.0625000
        k(   10) = (   0.0110451  -0.0312401   0.0270549), wk =   0.0625000
        k(   11) = (   0.0110450  -0.0312403  -0.0541092), wk =   0.0625000
        k(   12) = (   0.0110450  -0.0312403  -0.0270545), wk =   0.0625000
        k(   13) = (   0.0110451  -0.0078100   0.0135273), wk =   0.0625000
        k(   14) = (   0.0110452  -0.0078100   0.0405820), wk =   0.0625000
        k(   15) = (   0.0110450  -0.0078102  -0.0405820), wk =   0.0625000
        k(   16) = (   0.0110451  -0.0078101  -0.0135273), wk =   0.0625000
        k(   17) = (   0.0331354   0.0234301   0.0405817), wk =   0.0625000
        k(   18) = (   0.0331354   0.0234302   0.0676364), wk =   0.0625000
        k(   19) = (   0.0331353   0.0234300  -0.0135277), wk =   0.0625000
        k(   20) = (   0.0331353   0.0234300   0.0135270), wk =   0.0625000
        k(   21) = (   0.0331354   0.0468603   0.0541089), wk =   0.0625000
        k(   22) = (   0.0331354   0.0468603   0.0811636), wk =   0.0625000
        k(   23) = (   0.0331353   0.0468601  -0.0000005), wk =   0.0625000
        k(   24) = (   0.0331353   0.0468602   0.0270542), wk =   0.0625000
        k(   25) = (   0.0331353  -0.0234302   0.0135273), wk =   0.0625000
        k(   26) = (   0.0331353  -0.0234301   0.0405820), wk =   0.0625000
        k(   27) = (   0.0331352  -0.0234303  -0.0405820), wk =   0.0625000
        k(   28) = (   0.0331352  -0.0234303  -0.0135273), wk =   0.0625000
        k(   29) = (   0.0331353   0.0000000   0.0270545), wk =   0.0625000
        k(   30) = (   0.0331354   0.0000000   0.0541092), wk =   0.0625000
        k(   31) = (   0.0331352  -0.0000002  -0.0270549), wk =   0.0625000
        k(   32) = (   0.0331353  -0.0000001  -0.0000002), wk =   0.0625000

     Dense  grid:   426123 G-vectors     FFT dimensions: ( 108, 108, 108)

     Smooth grid:   107877 G-vectors     FFT dimensions: (  72,  72,  72)

     Largest allocated arrays     est. size (Mb)     dimensions
        Kohn-Sham Wavefunctions         1.46 Mb     (    3409,   28)
        NL pseudopotentials             5.41 Mb     (    3409,  104)
        Each V/rho on FFT grid          4.81 Mb     (  314928)
        Each G-vector array             0.81 Mb     (  106533)
        G-vector shells                 0.81 Mb     (  106533)
     Largest temporary arrays     est. size (Mb)     dimensions
        Auxiliary wavefunctions         5.83 Mb     (    3409,  112)
        Each subspace H/S matrix        0.19 Mb     (     112,  112)
        Each <psi_i|beta_j> matrix      0.04 Mb     (     104,   28)
        Arrays for rho mixing          38.44 Mb     (  314928,    8)

     Initial potential from superposition of free atoms

     starting charge   55.99961, renormalised to   56.00000
     Starting wfc are   52 randomized atomic wfcs
     Checking if some PAW data can be deallocated... 

     total cpu time spent up to now is       42.6 secs

     per-process dynamical memory:   123.4 Mb

     Self-consistent Calculation

     iteration #  1     ecut=    80.00 Ry     beta=0.70
     Davidson diagonalization with overlap
     ethr =  1.00E-02,  avg # of iterations =  4.0

     total cpu time spent up to now is      144.1 secs

     total energy              =    -238.08243067 Ry
     Harris-Foulkes estimate   =    -239.09944629 Ry
     estimated scf accuracy    <       1.80366591 Ry

     iteration #  2     ecut=    80.00 Ry     beta=0.70
     Davidson diagonalization with overlap
     ethr =  3.22E-03,  avg # of iterations =  3.6

     total cpu time spent up to now is      223.0 secs

     total energy              =    -238.34650565 Ry
     Harris-Foulkes estimate   =    -238.41461830 Ry
     estimated scf accuracy    <       0.12389877 Ry

     iteration #  3     ecut=    80.00 Ry     beta=0.70
     Davidson diagonalization with overlap
     ethr =  2.21E-04,  avg # of iterations =  4.0

     total cpu time spent up to now is      331.8 secs

     total energy              =    -238.48072971 Ry
     Harris-Foulkes estimate   =    -238.52834711 Ry
     estimated scf accuracy    <       0.09448713 Ry

     iteration #  4     ecut=    80.00 Ry     beta=0.70
     Davidson diagonalization with overlap
     ethr =  1.69E-04,  avg # of iterations =  2.7

     total cpu time spent up to now is      406.2 secs

     total energy              =    -238.48071971 Ry
     Harris-Foulkes estimate   =    -238.48786626 Ry
     estimated scf accuracy    <       0.01196036 Ry

     iteration #  5     ecut=    80.00 Ry     beta=0.70
     Davidson diagonalization with overlap
     ethr =  2.14E-05,  avg # of iterations =  4.0

     total cpu time spent up to now is      518.7 secs

     total energy              =    -238.50852863 Ry
     Harris-Foulkes estimate   =    -238.51377079 Ry
     estimated scf accuracy    <       0.04746797 Ry

     iteration #  6     ecut=    80.00 Ry     beta=0.70
     Davidson diagonalization with overlap
     ethr =  2.14E-05,  avg # of iterations =  1.0

     total cpu time spent up to now is      590.1 secs

     total energy              =    -238.48155844 Ry
     Harris-Foulkes estimate   =    -238.50862340 Ry
     estimated scf accuracy    <       0.03859158 Ry

     iteration #  7     ecut=    80.00 Ry     beta=0.70
     Davidson diagonalization with overlap
     ethr =  2.14E-05,  avg # of iterations =  4.0

     total cpu time spent up to now is      702.5 secs

     total energy              =    -238.49662708 Ry
     Harris-Foulkes estimate   =    -238.50581240 Ry
     estimated scf accuracy    <       0.02245295 Ry

     iteration #  8     ecut=    80.00 Ry     beta=0.70
     Davidson diagonalization with overlap
     ethr =  2.14E-05,  avg # of iterations =  2.8

     total cpu time spent up to now is      776.5 secs

     total energy              =    -238.49468780 Ry
     Harris-Foulkes estimate   =    -238.49754992 Ry
     estimated scf accuracy    <       0.00634406 Ry

     iteration #  9     ecut=    80.00 Ry     beta=0.70
     Davidson diagonalization with overlap
     ethr =  1.13E-05,  avg # of iterations =  4.3

     total cpu time spent up to now is      876.2 secs

     total energy              =    -238.49896233 Ry
     Harris-Foulkes estimate   =    -238.49915515 Ry
     estimated scf accuracy    <       0.00113416 Ry

     iteration # 10     ecut=    80.00 Ry     beta=0.70
     Davidson diagonalization with overlap
     ethr =  2.03E-06,  avg # of iterations =  2.9

     total cpu time spent up to now is      950.5 secs

     total energy              =    -238.49880687 Ry
     Harris-Foulkes estimate   =    -238.49902747 Ry
     estimated scf accuracy    <       0.00085879 Ry

     iteration # 11     ecut=    80.00 Ry     beta=0.70
     Davidson diagonalization with overlap
     ethr =  1.53E-06,  avg # of iterations =  2.0

     total cpu time spent up to now is     1025.8 secs

     total energy              =    -238.49882790 Ry
     Harris-Foulkes estimate   =    -238.49886294 Ry
     estimated scf accuracy    <       0.00028253 Ry

     iteration # 12     ecut=    80.00 Ry     beta=0.70
     Davidson diagonalization with overlap
     ethr =  5.05E-07,  avg # of iterations =  1.3

     total cpu time spent up to now is     1097.5 secs

     total energy              =    -238.49878330 Ry
     Harris-Foulkes estimate   =    -238.49883775 Ry
     estimated scf accuracy    <       0.00020704 Ry

     iteration # 13     ecut=    80.00 Ry     beta=0.70
     Davidson diagonalization with overlap
     ethr =  3.70E-07,  avg # of iterations =  3.5

     total cpu time spent up to now is     1177.4 secs

     total energy              =    -238.49881453 Ry
     Harris-Foulkes estimate   =    -238.49881870 Ry
     estimated scf accuracy    <       0.00004291 Ry

     iteration # 14     ecut=    80.00 Ry     beta=0.70
     Davidson diagonalization with overlap
     ethr =  7.66E-08,  avg # of iterations =  4.2

     total cpu time spent up to now is     1269.2 secs

     total energy              =    -238.49883086 Ry
     Harris-Foulkes estimate   =    -238.49883301 Ry
     estimated scf accuracy    <       0.00001105 Ry

     iteration # 15     ecut=    80.00 Ry     beta=0.70
     Davidson diagonalization with overlap
     ethr =  1.97E-08,  avg # of iterations =  2.2

     total cpu time spent up to now is     1342.7 secs

     total energy              =    -238.49883088 Ry
     Harris-Foulkes estimate   =    -238.49883146 Ry
     estimated scf accuracy    <       0.00000549 Ry

     iteration # 16     ecut=    80.00 Ry     beta=0.70
     Davidson diagonalization with overlap
     ethr =  9.80E-09,  avg # of iterations =  1.2

     total cpu time spent up to now is     1414.2 secs

     total energy              =    -238.49882858 Ry
     Harris-Foulkes estimate   =    -238.49883106 Ry
     estimated scf accuracy    <       0.00000425 Ry

     iteration # 17     ecut=    80.00 Ry     beta=0.70
     Davidson diagonalization with overlap
     ethr =  7.58E-09,  avg # of iterations =  4.0

     total cpu time spent up to now is     1518.9 secs

     total energy              =    -238.49883176 Ry
     Harris-Foulkes estimate   =    -238.49883205 Ry
     estimated scf accuracy    <       0.00000477 Ry

     iteration # 18     ecut=    80.00 Ry     beta=0.70
     Davidson diagonalization with overlap
     ethr =  7.58E-09,  avg # of iterations =  1.0

     total cpu time spent up to now is     1590.3 secs

     total energy              =    -238.49883092 Ry
     Harris-Foulkes estimate   =    -238.49883177 Ry
     estimated scf accuracy    <       0.00000428 Ry

     iteration # 19     ecut=    80.00 Ry     beta=0.70
     Davidson diagonalization with overlap
     ethr =  7.58E-09,  avg # of iterations =  1.0

     total cpu time spent up to now is     1661.6 secs

     total energy              =    -238.49883050 Ry
     Harris-Foulkes estimate   =    -238.49883096 Ry
     estimated scf accuracy    <       0.00000272 Ry

     iteration # 20     ecut=    80.00 Ry     beta=0.70
     Davidson diagonalization with overlap
     ethr =  4.86E-09,  avg # of iterations =  1.7

     total cpu time spent up to now is     1733.9 secs

     total energy              =    -238.49883040 Ry
     Harris-Foulkes estimate   =    -238.49883060 Ry
     estimated scf accuracy    <       0.00000156 Ry

     iteration # 21     ecut=    80.00 Ry     beta=0.70
     Davidson diagonalization with overlap
     ethr =  2.79E-09,  avg # of iterations =  1.0

     total cpu time spent up to now is     1805.3 secs

     total energy              =    -238.49883006 Ry
     Harris-Foulkes estimate   =    -238.49883046 Ry
     estimated scf accuracy    <       0.00000114 Ry

     iteration # 22     ecut=    80.00 Ry     beta=0.70
     Davidson diagonalization with overlap
     ethr =  2.04E-09,  avg # of iterations =  3.9

     total cpu time spent up to now is     1898.7 secs

     total energy              =    -238.49883051 Ry
     Harris-Foulkes estimate   =    -238.49883056 Ry
     estimated scf accuracy    <       0.00000014 Ry

     iteration # 23     ecut=    80.00 Ry     beta=0.70
     Davidson diagonalization with overlap
     ethr =  2.44E-10,  avg # of iterations =  2.7

     total cpu time spent up to now is     1974.6 secs

     total energy              =    -238.49883050 Ry
     Harris-Foulkes estimate   =    -238.49883053 Ry
     estimated scf accuracy    <       0.00000007 Ry

     iteration # 24     ecut=    80.00 Ry     beta=0.70
     Davidson diagonalization with overlap
     ethr =  1.33E-10,  avg # of iterations =  4.0

     total cpu time spent up to now is     2086.5 secs

     total energy              =    -238.49883049 Ry
     Harris-Foulkes estimate   =    -238.49883056 Ry
     estimated scf accuracy    <       0.00000017 Ry

     iteration # 25     ecut=    80.00 Ry     beta=0.70
     Davidson diagonalization with overlap
     ethr =  1.33E-10,  avg # of iterations =  3.0

     total cpu time spent up to now is     2165.0 secs

     total energy              =    -238.49883049 Ry
     Harris-Foulkes estimate   =    -238.49883050 Ry
     estimated scf accuracy    <       0.00000004 Ry

     iteration # 26     ecut=    80.00 Ry     beta=0.70
     Davidson diagonalization with overlap
     ethr =  6.41E-11,  avg # of iterations =  4.0

     total cpu time spent up to now is     2256.5 secs

     End of self-consistent calculation

          k = 0.0110 0.0156 0.0271 ( 13451 PWs)   bands (ev):

   -18.2910 -15.2420 -15.2011 -15.2011 -10.3283 -10.3283  -9.0504  -9.0503
    -9.0271  -6.9219  -4.9829  -4.9828  -4.8108  -4.7168  -4.5933  -4.5933
    -2.4649  -2.1131  -2.1131  -1.8403  -1.8403  -1.6461  -1.6148  -1.6148
    -1.4538   1.6606   1.6606   1.9903

          k = 0.0110 0.0156 0.0541 ( 13466 PWs)   bands (ev):

   -18.2765 -15.2627 -15.2241 -15.2079 -10.3299 -10.2524  -9.1161  -9.0670
    -9.0188  -6.5814  -5.1761  -5.0839  -4.9122  -4.6222  -4.5666  -4.5217
    -2.6215  -2.3695  -2.0327  -1.8709  -1.6902  -1.6730  -1.6653  -1.6247
    -1.4860   1.6330   1.8646   2.1424

          k = 0.0110 0.0156-0.0271 ( 13451 PWs)   bands (ev):

   -18.2910 -15.2419 -15.2012 -15.2011 -10.3283 -10.3283  -9.0504  -9.0500
    -9.0274  -6.9219  -4.9831  -4.9828  -4.8104  -4.7166  -4.5936  -4.5934
    -2.4653  -2.1131  -2.1129  -1.8402  -1.8400  -1.6460  -1.6150  -1.6149
    -1.4537   1.6606   1.6606   1.9903

          k = 0.0110 0.0156 0.0000 ( 13472 PWs)   bands (ev):

   -18.3053 -15.2053 -15.1943 -15.1942 -10.3967 -10.3272  -9.0657  -8.9919
    -8.9916  -7.2126  -4.8885  -4.8089  -4.8089  -4.7534  -4.6171  -4.6170
    -2.3511  -2.1585  -1.9541  -1.8851  -1.8847  -1.5979  -1.5978  -1.5712
    -1.4148   1.6479   1.6857   1.6857

          k = 0.0110 0.0391 0.0406 ( 13466 PWs)   bands (ev):

   -18.2765 -15.2627 -15.2241 -15.2079 -10.3299 -10.2524  -9.1161  -9.0670
    -9.0188  -6.5814  -5.1761  -5.0839  -4.9122  -4.6221  -4.5666  -4.5217
    -2.6215  -2.3695  -2.0327  -1.8709  -1.6902  -1.6730  -1.6653  -1.6247
    -1.4860   1.6330   1.8646   2.1424

          k = 0.0110 0.0391 0.0676 ( 13464 PWs)   bands (ev):

   -18.2765 -15.2626 -15.2241 -15.2079 -10.3299 -10.2524  -9.1159  -9.0673
    -9.0187  -6.5813  -5.1763  -5.0837  -4.9122  -4.6220  -4.5666  -4.5219
    -2.6217  -2.3696  -2.0324  -1.8709  -1.6900  -1.6731  -1.6653  -1.6248
    -1.4859   1.6330   1.8645   2.1423

          k = 0.0110 0.0391-0.0135 ( 13480 PWs)   bands (ev):

   -18.2806 -15.2578 -15.2132 -15.2021 -10.4245 -10.3031  -9.0904  -9.0017
    -8.9435  -6.7798  -5.1312  -4.9288  -4.7448  -4.6282  -4.5632  -4.5178
    -2.6559  -2.3049  -2.2301  -2.0368  -1.7972  -1.6501  -1.6210  -1.5722
    -1.4491   1.6444   1.8957   2.1543

          k = 0.0110 0.0391 0.0135 ( 13480 PWs)   bands (ev):

   -18.2806 -15.2579 -15.2132 -15.2020 -10.4245 -10.3031  -9.0906  -9.0016
    -8.9435  -6.7799  -5.1311  -4.9290  -4.7448  -4.6282  -4.5632  -4.5177
    -2.6558  -2.3047  -2.2302  -2.0370  -1.7972  -1.6501  -1.6210  -1.5721
    -1.4492   1.6444   1.8957   2.1543

          k = 0.0110-0.0312 0.0000 ( 13451 PWs)   bands (ev):

   -18.2910 -15.2419 -15.2012 -15.2011 -10.3284 -10.3283  -9.0503  -9.0500
    -9.0274  -6.9219  -4.9831  -4.9828  -4.8104  -4.7166  -4.5936  -4.5934
    -2.4653  -2.1131  -2.1129  -1.8402  -1.8400  -1.6459  -1.6150  -1.6149
    -1.4537   1.6606   1.6606   1.9903

          k = 0.0110-0.0312 0.0271 ( 13480 PWs)   bands (ev):

   -18.2806 -15.2578 -15.2132 -15.2021 -10.4245 -10.3031  -9.0904  -9.0017
    -8.9435  -6.7798  -5.1312  -4.9288  -4.7448  -4.6282  -4.5632  -4.5178
    -2.6559  -2.3049  -2.2301  -2.0368  -1.7972  -1.6501  -1.6210  -1.5722
    -1.4491   1.6444   1.8957   2.1543

          k = 0.0110-0.0312-0.0541 ( 13504 PWs)   bands (ev):

   -18.2702 -15.2479 -15.2478 -15.2065 -10.4031 -10.4031  -9.0161  -8.9578
    -8.9575  -6.6503  -4.9284  -4.9237  -4.9234  -4.5490  -4.5489  -4.4918
    -2.6723  -2.6721  -2.2898  -1.9596  -1.9595  -1.6094  -1.6094  -1.5870
    -1.5608   1.7531   2.1785   2.1786

          k = 0.0110-0.0312-0.0271 ( 13480 PWs)   bands (ev):

   -18.2806 -15.2579 -15.2132 -15.2020 -10.4245 -10.3031  -9.0906  -9.0016
    -8.9435  -6.7799  -5.1311  -4.9290  -4.7448  -4.6282  -4.5632  -4.5177
    -2.6558  -2.3047  -2.2302  -2.0370  -1.7972  -1.6501  -1.6210  -1.5721
    -1.4492   1.6444   1.8957   2.1543

          k = 0.0110-0.0078 0.0135 ( 13472 PWs)   bands (ev):

   -18.3053 -15.2053 -15.1943 -15.1942 -10.3967 -10.3272  -9.0657  -8.9919
    -8.9916  -7.2126  -4.8885  -4.8089  -4.8089  -4.7534  -4.6171  -4.6170
    -2.3511  -2.1585  -1.9541  -1.8851  -1.8847  -1.5979  -1.5978  -1.5712
    -1.4148   1.6479   1.6857   1.6857

          k = 0.0110-0.0078 0.0406 ( 13480 PWs)   bands (ev):

   -18.2806 -15.2579 -15.2132 -15.2020 -10.4245 -10.3031  -9.0906  -9.0016
    -8.9435  -6.7799  -5.1311  -4.9290  -4.7448  -4.6282  -4.5632  -4.5177
    -2.6558  -2.3047  -2.2303  -2.0370  -1.7972  -1.6501  -1.6210  -1.5721
    -1.4492   1.6444   1.8957   2.1543

          k = 0.0110-0.0078-0.0406 ( 13480 PWs)   bands (ev):

   -18.2806 -15.2579 -15.2132 -15.2020 -10.4245 -10.3031  -9.0906  -9.0016
    -8.9435  -6.7799  -5.1311  -4.9290  -4.7448  -4.6282  -4.5632  -4.5177
    -2.6558  -2.3047  -2.2303  -2.0370  -1.7972  -1.6501  -1.6210  -1.5721
    -1.4492   1.6444   1.8957   2.1543

          k = 0.0110-0.0078-0.0135 ( 13470 PWs)   bands (ev):

   -18.3053 -15.2053 -15.1943 -15.1942 -10.3967 -10.3272  -9.0657  -8.9919
    -8.9917  -7.2126  -4.8885  -4.8089  -4.8089  -4.7534  -4.6171  -4.6170
    -2.3511  -2.1585  -1.9541  -1.8850  -1.8848  -1.5979  -1.5978  -1.5712
    -1.4148   1.6479   1.6857   1.6857

          k = 0.0331 0.0234 0.0406 ( 13466 PWs)   bands (ev):

   -18.2765 -15.2627 -15.2241 -15.2079 -10.3299 -10.2524  -9.1161  -9.0671
    -9.0188  -6.5814  -5.1761  -5.0839  -4.9122  -4.6221  -4.5666  -4.5217
    -2.6215  -2.3695  -2.0327  -1.8709  -1.6902  -1.6730  -1.6653  -1.6247
    -1.4859   1.6330   1.8646   2.1424

          k = 0.0331 0.0234 0.0676 ( 13465 PWs)   bands (ev):

   -18.2765 -15.2626 -15.2241 -15.2080 -10.3299 -10.2524  -9.1159  -9.0673
    -9.0187  -6.5813  -5.1763  -5.0837  -4.9122  -4.6220  -4.5666  -4.5219
    -2.6217  -2.3696  -2.0324  -1.8709  -1.6900  -1.6732  -1.6653  -1.6248
    -1.4858   1.6330   1.8645   2.1423

          k = 0.0331 0.0234-0.0135 ( 13480 PWs)   bands (ev):

   -18.2806 -15.2578 -15.2132 -15.2021 -10.4245 -10.3031  -9.0904  -9.0017
    -8.9435  -6.7798  -5.1312  -4.9288  -4.7448  -4.6282  -4.5632  -4.5178
    -2.6560  -2.3050  -2.2300  -2.0368  -1.7972  -1.6501  -1.6210  -1.5722
    -1.4491   1.6444   1.8957   2.1543

          k = 0.0331 0.0234 0.0135 ( 13480 PWs)   bands (ev):

   -18.2806 -15.2579 -15.2132 -15.2020 -10.4245 -10.3031  -9.0906  -9.0016
    -8.9435  -6.7799  -5.1311  -4.9290  -4.7448  -4.6282  -4.5632  -4.5177
    -2.6558  -2.3048  -2.2302  -2.0370  -1.7972  -1.6501  -1.6210  -1.5721
    -1.4492   1.6444   1.8957   2.1543

          k = 0.0331 0.0469 0.0541 ( 13464 PWs)   bands (ev):

   -18.2765 -15.2626 -15.2241 -15.2080 -10.3299 -10.2524  -9.1158  -9.0673
    -9.0187  -6.5813  -5.1763  -5.0837  -4.9122  -4.6220  -4.5666  -4.5219
    -2.6217  -2.3696  -2.0324  -1.8709  -1.6900  -1.6732  -1.6653  -1.6248
    -1.4858   1.6330   1.8645   2.1423

          k = 0.0331 0.0469 0.0812 ( 13504 PWs)   bands (ev):

   -18.2702 -15.2478 -15.2478 -15.2066 -10.4031 -10.4031  -9.0157  -8.9579
    -8.9578  -6.6503  -4.9289  -4.9233  -4.9233  -4.5489  -4.5489  -4.4920
    -2.6723  -2.6722  -2.2895  -1.9597  -1.9597  -1.6093  -1.6093  -1.5871
    -1.5607   1.7530   2.1785   2.1785

          k = 0.0331 0.0469 0.0000 ( 13496 PWs)   bands (ev):

   -18.2638 -15.2441 -15.2329 -15.2328 -10.5310 -10.4711  -8.9350  -8.8735
    -8.8732  -6.7074  -4.9060  -4.7295  -4.7291  -4.5217  -4.4840  -4.4839
    -2.7446  -2.5612  -2.5609  -2.4072  -2.1131  -1.7851  -1.5594  -1.5593
    -1.5377   2.1781   2.2107   2.2108

          k = 0.0331 0.0469 0.0271 ( 13504 PWs)   bands (ev):

   -18.2702 -15.2479 -15.2478 -15.2065 -10.4031 -10.4031  -9.0161  -8.9579
    -8.9575  -6.6503  -4.9285  -4.9237  -4.9233  -4.5490  -4.5488  -4.4918
    -2.6723  -2.6721  -2.2897  -1.9597  -1.9596  -1.6094  -1.6093  -1.5870
    -1.5608   1.7530   2.1785   2.1786

          k = 0.0331-0.0234 0.0135 ( 13480 PWs)   bands (ev):

   -18.2806 -15.2578 -15.2132 -15.2021 -10.4245 -10.3031  -9.0904  -9.0018
    -8.9435  -6.7798  -5.1312  -4.9288  -4.7448  -4.6282  -4.5632  -4.5178
    -2.6560  -2.3050  -2.2300  -2.0368  -1.7972  -1.6500  -1.6210  -1.5722
    -1.4491   1.6444   1.8957   2.1543

          k = 0.0331-0.0234 0.0406 ( 13496 PWs)   bands (ev):

   -18.2638 -15.2441 -15.2329 -15.2328 -10.5310 -10.4711  -8.9350  -8.8735
    -8.8732  -6.7074  -4.9060  -4.7294  -4.7291  -4.5217  -4.4840  -4.4839
    -2.7446  -2.5612  -2.5609  -2.4072  -2.1131  -1.7851  -1.5594  -1.5593
    -1.5377   2.1781   2.2107   2.2108

          k = 0.0331-0.0234-0.0406 ( 13496 PWs)   bands (ev):

   -18.2638 -15.2441 -15.2329 -15.2328 -10.5310 -10.4711  -8.9350  -8.8734
    -8.8732  -6.7074  -4.9060  -4.7294  -4.7292  -4.5217  -4.4840  -4.4839
    -2.7446  -2.5612  -2.5610  -2.4072  -2.1131  -1.7851  -1.5593  -1.5593
    -1.5377   2.1781   2.2108   2.2108

          k = 0.0331-0.0234-0.0135 ( 13480 PWs)   bands (ev):

   -18.2806 -15.2578 -15.2132 -15.2021 -10.4245 -10.3031  -9.0904  -9.0018
    -8.9435  -6.7798  -5.1312  -4.9288  -4.7448  -4.6282  -4.5632  -4.5178
    -2.6560  -2.3050  -2.2300  -2.0368  -1.7972  -1.6500  -1.6210  -1.5722
    -1.4491   1.6444   1.8957   2.1543

          k = 0.0331 0.0000 0.0271 ( 13480 PWs)   bands (ev):

   -18.2806 -15.2579 -15.2132 -15.2020 -10.4245 -10.3031  -9.0906  -9.0016
    -8.9435  -6.7799  -5.1311  -4.9290  -4.7448  -4.6282  -4.5632  -4.5177
    -2.6558  -2.3048  -2.2302  -2.0370  -1.7972  -1.6501  -1.6210  -1.5721
    -1.4492   1.6444   1.8957   2.1543

          k = 0.0331 0.0000 0.0541 ( 13504 PWs)   bands (ev):

   -18.2702 -15.2479 -15.2478 -15.2065 -10.4031 -10.4031  -9.0161  -8.9579
    -8.9575  -6.6503  -4.9285  -4.9237  -4.9233  -4.5490  -4.5488  -4.4918
    -2.6723  -2.6721  -2.2897  -1.9597  -1.9596  -1.6094  -1.6094  -1.5870
    -1.5608   1.7531   2.1785   2.1786

          k = 0.0331 0.0000-0.0271 ( 13480 PWs)   bands (ev):

   -18.2806 -15.2578 -15.2132 -15.2021 -10.4245 -10.3031  -9.0904  -9.0017
    -8.9435  -6.7798  -5.1312  -4.9288  -4.7448  -4.6282  -4.5632  -4.5178
    -2.6560  -2.3050  -2.2300  -2.0368  -1.7972  -1.6501  -1.6210  -1.5722
    -1.4491   1.6444   1.8957   2.1543

          k = 0.0331 0.0000 0.0000 ( 13451 PWs)   bands (ev):

   -18.2910 -15.2419 -15.2012 -15.2011 -10.3283 -10.3283  -9.0503  -9.0500
    -9.0275  -6.9219  -4.9831  -4.9828  -4.8104  -4.7165  -4.5936  -4.5934
    -2.4653  -2.1131  -2.1129  -1.8402  -1.8400  -1.6459  -1.6150  -1.6149
    -1.4537   1.6606   1.6606   1.9902

     highest occupied level (ev):     2.2108

* XDM dispersion
  a1 =     0.651200
  a2 (ang) =     1.463300
  a2 (bohr) =     2.765236
 
+ Volumes and moments
# All results in atomic units (Hartree,bohr)
# i        V             Vfree           M1             M2             M3
  1   7.694541E+00   1.032844E+01   1.459245E+00   1.264757E+01   2.433131E+02
  2   7.694517E+00   1.032844E+01   1.459204E+00   1.264749E+01   2.433138E+02
  3   7.694541E+00   1.032844E+01   1.459243E+00   1.264757E+01   2.433131E+02
  4   7.694576E+00   1.032844E+01   1.459292E+00   1.264770E+01   2.433128E+02
  5   7.694536E+00   1.032844E+01   1.459236E+00   1.264755E+01   2.433131E+02
  6   7.694536E+00   1.032844E+01   1.459237E+00   1.264755E+01   2.433131E+02
  7   7.694545E+00   1.032844E+01   1.459251E+00   1.264758E+01   2.433130E+02
  8   7.694545E+00   1.032844E+01   1.459250E+00   1.264758E+01   2.433130E+02
  9   7.694574E+00   1.032844E+01   1.459287E+00   1.264769E+01   2.433129E+02
 10   7.694524E+00   1.032844E+01   1.459213E+00   1.264752E+01   2.433138E+02
 11   7.694522E+00   1.032844E+01   1.459212E+00   1.264752E+01   2.433138E+02
 12   7.694573E+00   1.032844E+01   1.459285E+00   1.264769E+01   2.433130E+02
 13   3.251859E+01   3.872712E+01   3.558320E+00   4.656854E+01   8.470134E+02
 14   3.251860E+01   3.872712E+01   3.558313E+00   4.656856E+01   8.470141E+02
 15   3.251859E+01   3.872712E+01   3.558321E+00   4.656854E+01   8.470132E+02
 16   3.251859E+01   3.872712E+01   3.558322E+00   4.656855E+01   8.470132E+02
 17   3.251861E+01   3.872712E+01   3.558311E+00   4.656857E+01   8.470144E+02
 18   3.251860E+01   3.872712E+01   3.558311E+00   4.656856E+01   8.470144E+02
 19   2.656895E+01   2.988899E+01   3.618587E+00   3.481597E+01   4.803348E+02
 20   2.656894E+01   2.988899E+01   3.618587E+00   3.481588E+01   4.803328E+02
 21   2.656894E+01   2.988899E+01   3.618587E+00   3.481586E+01   4.803325E+02
 22   2.656894E+01   2.988899E+01   3.618587E+00   3.481588E+01   4.803328E+02
 
+ Dispersion coefficients
# All results in atomic units (Hartree,bohr).
# i   j      C6             C8             C10            Rc            Rvdw
  1   1   2.445899E+00   6.359731E+01   2.403002E+03   5.614898E+00   6.421658E+00
  2   1   2.445861E+00   6.359701E+01   2.403007E+03   5.614922E+00   6.421674E+00
  2   2   2.445822E+00   6.359671E+01   2.403012E+03   5.614947E+00   6.421689E+00
  3   1   2.445898E+00   6.359731E+01   2.403003E+03   5.614899E+00   6.421658E+00
  3   2   2.445859E+00   6.359701E+01   2.403008E+03   5.614923E+00   6.421674E+00
  3   3   2.445896E+00   6.359731E+01   2.403004E+03   5.614900E+00   6.421659E+00
  4   1   2.445944E+00   6.359778E+01   2.403002E+03   5.614872E+00   6.421641E+00
  4   2   2.445906E+00   6.359748E+01   2.403007E+03   5.614897E+00   6.421657E+00
  4   3   2.445943E+00   6.359777E+01   2.403003E+03   5.614873E+00   6.421642E+00
  4   4   2.445989E+00   6.359824E+01   2.403002E+03   5.614847E+00   6.421624E+00
  5   1   2.445891E+00   6.359724E+01   2.403003E+03   5.614903E+00   6.421661E+00
  5   2   2.445852E+00   6.359694E+01   2.403008E+03   5.614927E+00   6.421677E+00
  5   3   2.445889E+00   6.359724E+01   2.403004E+03   5.614904E+00   6.421662E+00
  5   4   2.445936E+00   6.359770E+01   2.403003E+03   5.614877E+00   6.421644E+00
  5   5   2.445882E+00   6.359716E+01   2.403004E+03   5.614908E+00   6.421664E+00
  6   1   2.445891E+00   6.359724E+01   2.403003E+03   5.614902E+00   6.421661E+00
  6   2   2.445853E+00   6.359694E+01   2.403007E+03   5.614927E+00   6.421676E+00
  6   3   2.445890E+00   6.359724E+01   2.403003E+03   5.614903E+00   6.421661E+00
  6   4   2.445936E+00   6.359771E+01   2.403003E+03   5.614877E+00   6.421644E+00
  6   5   2.445883E+00   6.359717E+01   2.403003E+03   5.614907E+00   6.421664E+00
  6   6   2.445884E+00   6.359717E+01   2.403003E+03   5.614906E+00   6.421663E+00
  7   1   2.445905E+00   6.359736E+01   2.403002E+03   5.614894E+00   6.421655E+00
  7   2   2.445866E+00   6.359706E+01   2.403007E+03   5.614919E+00   6.421671E+00
  7   3   2.445903E+00   6.359736E+01   2.403003E+03   5.614895E+00   6.421656E+00
  7   4   2.445950E+00   6.359782E+01   2.403002E+03   5.614869E+00   6.421639E+00
  7   5   2.445896E+00   6.359729E+01   2.403002E+03   5.614899E+00   6.421659E+00
  7   6   2.445897E+00   6.359729E+01   2.403002E+03   5.614899E+00   6.421658E+00
  7   7   2.445910E+00   6.359741E+01   2.403001E+03   5.614891E+00   6.421653E+00
  8   1   2.445904E+00   6.359736E+01   2.403002E+03   5.614895E+00   6.421656E+00
  8   2   2.445865E+00   6.359705E+01   2.403007E+03   5.614919E+00   6.421672E+00
  8   3   2.445902E+00   6.359735E+01   2.403003E+03   5.614896E+00   6.421656E+00
  8   4   2.445949E+00   6.359782E+01   2.403002E+03   5.614869E+00   6.421639E+00
  8   5   2.445895E+00   6.359728E+01   2.403003E+03   5.614900E+00   6.421659E+00
  8   6   2.445896E+00   6.359729E+01   2.403002E+03   5.614899E+00   6.421659E+00
  8   7   2.445909E+00   6.359740E+01   2.403002E+03   5.614891E+00   6.421653E+00
  8   8   2.445908E+00   6.359740E+01   2.403002E+03   5.614892E+00   6.421654E+00
  9   1   2.445940E+00   6.359775E+01   2.403003E+03   5.614875E+00   6.421643E+00
  9   2   2.445901E+00   6.359745E+01   2.403008E+03   5.614900E+00   6.421659E+00
  9   3   2.445938E+00   6.359774E+01   2.403004E+03   5.614876E+00   6.421644E+00
  9   4   2.445985E+00   6.359821E+01   2.403003E+03   5.614850E+00   6.421626E+00
  9   5   2.445931E+00   6.359767E+01   2.403004E+03   5.614880E+00   6.421646E+00
  9   6   2.445932E+00   6.359768E+01   2.403003E+03   5.614879E+00   6.421646E+00
  9   7   2.445945E+00   6.359780E+01   2.403003E+03   5.614872E+00   6.421641E+00
  9   8   2.445944E+00   6.359779E+01   2.403003E+03   5.614872E+00   6.421641E+00
  9   9   2.445980E+00   6.359818E+01   2.403004E+03   5.614852E+00   6.421628E+00
 10   1   2.445869E+00   6.359711E+01   2.403008E+03   5.614917E+00   6.421671E+00
 10   2   2.445831E+00   6.359681E+01   2.403012E+03   5.614942E+00   6.421686E+00
 10   3   2.445868E+00   6.359710E+01   2.403008E+03   5.614919E+00   6.421671E+00
 10   4   2.445914E+00   6.359757E+01   2.403008E+03   5.614892E+00   6.421654E+00
 10   5   2.445861E+00   6.359703E+01   2.403008E+03   5.614922E+00   6.421674E+00
 10   6   2.445862E+00   6.359704E+01   2.403008E+03   5.614922E+00   6.421673E+00
 10   7   2.445875E+00   6.359716E+01   2.403007E+03   5.614914E+00   6.421668E+00
 10   8   2.445874E+00   6.359715E+01   2.403007E+03   5.614915E+00   6.421669E+00
 10   9   2.445910E+00   6.359754E+01   2.403008E+03   5.614895E+00   6.421656E+00
 10  10   2.445840E+00   6.359690E+01   2.403013E+03   5.614937E+00   6.421683E+00
 11   1   2.445869E+00   6.359710E+01   2.403007E+03   5.614917E+00   6.421670E+00
 11   2   2.445831E+00   6.359680E+01   2.403012E+03   5.614942E+00   6.421686E+00
 11   3   2.445868E+00   6.359710E+01   2.403008E+03   5.614919E+00   6.421671E+00
 11   4   2.445914E+00   6.359756E+01   2.403007E+03   5.614892E+00   6.421654E+00
 11   5   2.445861E+00   6.359702E+01   2.403008E+03   5.614922E+00   6.421674E+00
 11   6   2.445861E+00   6.359703E+01   2.403007E+03   5.614922E+00   6.421673E+00
 11   7   2.445875E+00   6.359715E+01   2.403007E+03   5.614914E+00   6.421668E+00
 11   8   2.445874E+00   6.359714E+01   2.403007E+03   5.614915E+00   6.421669E+00
 11   9   2.445910E+00   6.359753E+01   2.403008E+03   5.614895E+00   6.421656E+00
 11  10   2.445839E+00   6.359689E+01   2.403012E+03   5.614937E+00   6.421683E+00
 11  11   2.445839E+00   6.359688E+01   2.403012E+03   5.614937E+00   6.421683E+00
 12   1   2.445938E+00   6.359773E+01   2.403003E+03   5.614876E+00   6.421644E+00
 12   2   2.445900E+00   6.359743E+01   2.403008E+03   5.614900E+00   6.421659E+00
 12   3   2.445937E+00   6.359773E+01   2.403004E+03   5.614877E+00   6.421644E+00
 12   4   2.445983E+00   6.359820E+01   2.403003E+03   5.614851E+00   6.421627E+00
 12   5   2.445930E+00   6.359766E+01   2.403004E+03   5.614881E+00   6.421647E+00
 12   6   2.445931E+00   6.359766E+01   2.403004E+03   5.614880E+00   6.421646E+00
 12   7   2.445944E+00   6.359778E+01   2.403003E+03   5.614873E+00   6.421641E+00
 12   8   2.445943E+00   6.359778E+01   2.403003E+03   5.614873E+00   6.421642E+00
 12   9   2.445979E+00   6.359817E+01   2.403004E+03   5.614853E+00   6.421629E+00
 12  10   2.445908E+00   6.359753E+01   2.403008E+03   5.614896E+00   6.421656E+00
 12  11   2.445908E+00   6.359752E+01   2.403008E+03   5.614896E+00   6.421656E+00
 12  12   2.445977E+00   6.359815E+01   2.403004E+03   5.614854E+00   6.421629E+00
 13   1   6.555353E+00   2.139120E+02   8.429906E+03   5.992786E+00   6.667738E+00
 13   2   6.555258E+00   2.139108E+02   8.429922E+03   5.992810E+00   6.667754E+00
 13   3   6.555350E+00   2.139120E+02   8.429908E+03   5.992787E+00   6.667739E+00
 13   4   6.555465E+00   2.139137E+02   8.429908E+03   5.992761E+00   6.667722E+00
 13   5   6.555333E+00   2.139117E+02   8.429908E+03   5.992791E+00   6.667742E+00
 13   6   6.555334E+00   2.139117E+02   8.429907E+03   5.992790E+00   6.667741E+00
 13   7   6.555367E+00   2.139122E+02   8.429905E+03   5.992782E+00   6.667736E+00
 13   8   6.555365E+00   2.139121E+02   8.429905E+03   5.992783E+00   6.667737E+00
 13   9   6.555454E+00   2.139136E+02   8.429911E+03   5.992763E+00   6.667724E+00
 13  10   6.555280E+00   2.139111E+02   8.429923E+03   5.992805E+00   6.667751E+00
 13  11   6.555279E+00   2.139111E+02   8.429922E+03   5.992805E+00   6.667751E+00
 13  12   6.555450E+00   2.139135E+02   8.429911E+03   5.992764E+00   6.667724E+00
 13  13   1.774356E+01   6.966419E+02   2.965848E+04   6.394939E+00   6.929620E+00
 14   1   6.555347E+00   2.139121E+02   8.429915E+03   5.992789E+00   6.667740E+00
 14   2   6.555253E+00   2.139109E+02   8.429930E+03   5.992813E+00   6.667756E+00
 14   3   6.555344E+00   2.139121E+02   8.429917E+03   5.992790E+00   6.667741E+00
 14   4   6.555459E+00   2.139138E+02   8.429916E+03   5.992763E+00   6.667724E+00
 14   5   6.555327E+00   2.139118E+02   8.429916E+03   5.992794E+00   6.667743E+00
 14   6   6.555329E+00   2.139118E+02   8.429915E+03   5.992793E+00   6.667743E+00
 14   7   6.555361E+00   2.139123E+02   8.429913E+03   5.992785E+00   6.667738E+00
 14   8   6.555359E+00   2.139122E+02   8.429914E+03   5.992786E+00   6.667738E+00
 14   9   6.555448E+00   2.139137E+02   8.429919E+03   5.992766E+00   6.667726E+00
 14  10   6.555274E+00   2.139112E+02   8.429931E+03   5.992808E+00   6.667753E+00
 14  11   6.555273E+00   2.139112E+02   8.429930E+03   5.992808E+00   6.667753E+00
 14  12   6.555444E+00   2.139136E+02   8.429919E+03   5.992767E+00   6.667726E+00
 14  13   1.774354E+01   6.966422E+02   2.965851E+04   6.394942E+00   6.929622E+00
 14  14   1.774353E+01   6.966424E+02   2.965854E+04   6.394945E+00   6.929624E+00
 15   1   6.555354E+00   2.139120E+02   8.429905E+03   5.992785E+00   6.667738E+00
 15   2   6.555260E+00   2.139107E+02   8.429920E+03   5.992810E+00   6.667754E+00
 15   3   6.555351E+00   2.139120E+02   8.429907E+03   5.992786E+00   6.667739E+00
 15   4   6.555466E+00   2.139137E+02   8.429906E+03   5.992760E+00   6.667722E+00
 15   5   6.555334E+00   2.139117E+02   8.429907E+03   5.992790E+00   6.667741E+00
 15   6   6.555336E+00   2.139117E+02   8.429906E+03   5.992790E+00   6.667741E+00
 15   7   6.555368E+00   2.139122E+02   8.429903E+03   5.992782E+00   6.667736E+00
 15   8   6.555366E+00   2.139121E+02   8.429904E+03   5.992782E+00   6.667736E+00
 15   9   6.555455E+00   2.139136E+02   8.429909E+03   5.992763E+00   6.667723E+00
 15  10   6.555281E+00   2.139111E+02   8.429921E+03   5.992805E+00   6.667751E+00
 15  11   6.555280E+00   2.139111E+02   8.429920E+03   5.992805E+00   6.667751E+00
 15  12   6.555451E+00   2.139135E+02   8.429909E+03   5.992764E+00   6.667724E+00
 15  13   1.774356E+01   6.966419E+02   2.965848E+04   6.394938E+00   6.929620E+00
 15  14   1.774355E+01   6.966422E+02   2.965851E+04   6.394941E+00   6.929622E+00
 15  15   1.774356E+01   6.966419E+02   2.965847E+04   6.394938E+00   6.929620E+00
 16   1   6.555355E+00   2.139120E+02   8.429904E+03   5.992785E+00   6.667738E+00
 16   2   6.555260E+00   2.139107E+02   8.429920E+03   5.992809E+00   6.667754E+00
 16   3   6.555352E+00   2.139120E+02   8.429906E+03   5.992786E+00   6.667739E+00
 16   4   6.555467E+00   2.139137E+02   8.429906E+03   5.992760E+00   6.667721E+00
 16   5   6.555335E+00   2.139117E+02   8.429906E+03   5.992790E+00   6.667741E+00
 16   6   6.555336E+00   2.139117E+02   8.429905E+03   5.992789E+00   6.667741E+00
 16   7   6.555369E+00   2.139122E+02   8.429903E+03   5.992782E+00   6.667736E+00
 16   8   6.555367E+00   2.139121E+02   8.429903E+03   5.992782E+00   6.667736E+00
 16   9   6.555456E+00   2.139136E+02   8.429909E+03   5.992763E+00   6.667723E+00
 16  10   6.555282E+00   2.139111E+02   8.429921E+03   5.992805E+00   6.667751E+00
 16  11   6.555281E+00   2.139111E+02   8.429920E+03   5.992805E+00   6.667751E+00
 16  12   6.555452E+00   2.139135E+02   8.429909E+03   5.992764E+00   6.667724E+00
 16  13   1.774356E+01   6.966419E+02   2.965848E+04   6.394938E+00   6.929620E+00
 16  14   1.774355E+01   6.966422E+02   2.965850E+04   6.394941E+00   6.929622E+00
 16  15   1.774356E+01   6.966419E+02   2.965847E+04   6.394938E+00   6.929620E+00
 16  16   1.774357E+01   6.966419E+02   2.965847E+04   6.394937E+00   6.929619E+00
 17   1   6.555346E+00   2.139121E+02   8.429918E+03   5.992789E+00   6.667741E+00
 17   2   6.555252E+00   2.139109E+02   8.429933E+03   5.992814E+00   6.667756E+00
 17   3   6.555343E+00   2.139121E+02   8.429920E+03   5.992790E+00   6.667741E+00
 17   4   6.555458E+00   2.139139E+02   8.429919E+03   5.992764E+00   6.667724E+00
 17   5   6.555326E+00   2.139118E+02   8.429920E+03   5.992794E+00   6.667744E+00
 17   6   6.555328E+00   2.139119E+02   8.429919E+03   5.992794E+00   6.667744E+00
 17   7   6.555360E+00   2.139123E+02   8.429916E+03   5.992786E+00   6.667738E+00
 17   8   6.555358E+00   2.139123E+02   8.429917E+03   5.992787E+00   6.667739E+00
 17   9   6.555447E+00   2.139138E+02   8.429922E+03   5.992767E+00   6.667726E+00
 17  10   6.555273E+00   2.139113E+02   8.429934E+03   5.992809E+00   6.667753E+00
 17  11   6.555272E+00   2.139112E+02   8.429933E+03   5.992809E+00   6.667753E+00
 17  12   6.555443E+00   2.139137E+02   8.429922E+03   5.992768E+00   6.667727E+00
 17  13   1.774354E+01   6.966423E+02   2.965852E+04   6.394943E+00   6.929623E+00
 17  14   1.774353E+01   6.966426E+02   2.965855E+04   6.394945E+00   6.929625E+00
 17  15   1.774354E+01   6.966423E+02   2.965852E+04   6.394942E+00   6.929622E+00
 17  16   1.774354E+01   6.966423E+02   2.965852E+04   6.394942E+00   6.929622E+00
 17  17   1.774352E+01   6.966427E+02   2.965856E+04   6.394946E+00   6.929625E+00
 18   1   6.555346E+00   2.139121E+02   8.429917E+03   5.992789E+00   6.667741E+00
 18   2   6.555251E+00   2.139109E+02   8.429932E+03   5.992814E+00   6.667756E+00
 18   3   6.555342E+00   2.139121E+02   8.429919E+03   5.992790E+00   6.667741E+00
 18   4   6.555457E+00   2.139139E+02   8.429919E+03   5.992764E+00   6.667724E+00
 18   5   6.555325E+00   2.139118E+02   8.429919E+03   5.992794E+00   6.667744E+00
 18   6   6.555327E+00   2.139118E+02   8.429918E+03   5.992794E+00   6.667743E+00
 18   7   6.555360E+00   2.139123E+02   8.429915E+03   5.992786E+00   6.667738E+00
 18   8   6.555357E+00   2.139123E+02   8.429916E+03   5.992786E+00   6.667739E+00
 18   9   6.555447E+00   2.139137E+02   8.429921E+03   5.992767E+00   6.667726E+00
 18  10   6.555273E+00   2.139112E+02   8.429934E+03   5.992809E+00   6.667753E+00
 18  11   6.555272E+00   2.139112E+02   8.429932E+03   5.992809E+00   6.667753E+00
 18  12   6.555443E+00   2.139137E+02   8.429921E+03   5.992768E+00   6.667727E+00
 18  13   1.774354E+01   6.966422E+02   2.965852E+04   6.394942E+00   6.929623E+00
 18  14   1.774352E+01   6.966425E+02   2.965855E+04   6.394945E+00   6.929625E+00
 18  15   1.774354E+01   6.966422E+02   2.965851E+04   6.394942E+00   6.929622E+00
 18  16   1.774354E+01   6.966422E+02   2.965851E+04   6.394942E+00   6.929622E+00
 18  17   1.774352E+01   6.966426E+02   2.965856E+04   6.394946E+00   6.929625E+00
 18  18   1.774352E+01   6.966426E+02   2.965856E+04   6.394946E+00   6.929625E+00
 19   1   5.367981E+00   1.472595E+02   5.095296E+03   5.556829E+00   6.383843E+00
 19   2   5.367889E+00   1.472585E+02   5.095306E+03   5.556855E+00   6.383860E+00
 19   3   5.367978E+00   1.472595E+02   5.095298E+03   5.556830E+00   6.383844E+00
 19   4   5.368088E+00   1.472609E+02   5.095297E+03   5.556801E+00   6.383825E+00
 19   5   5.367961E+00   1.472593E+02   5.095297E+03   5.556834E+00   6.383847E+00
 19   6   5.367963E+00   1.472593E+02   5.095297E+03   5.556834E+00   6.383846E+00
 19   7   5.367995E+00   1.472597E+02   5.095295E+03   5.556825E+00   6.383841E+00
 19   8   5.367992E+00   1.472597E+02   5.095296E+03   5.556826E+00   6.383841E+00
 19   9   5.368078E+00   1.472608E+02   5.095299E+03   5.556804E+00   6.383827E+00
 19  10   5.367910E+00   1.472588E+02   5.095307E+03   5.556850E+00   6.383857E+00
 19  11   5.367909E+00   1.472588E+02   5.095306E+03   5.556850E+00   6.383857E+00
 19  12   5.368074E+00   1.472608E+02   5.095299E+03   5.556806E+00   6.383828E+00
 19  13   1.422487E+01   4.845414E+02   1.807144E+04   5.971185E+00   6.653672E+00
 19  14   1.422485E+01   4.845416E+02   1.807146E+04   5.971188E+00   6.653674E+00
 19  15   1.422487E+01   4.845414E+02   1.807144E+04   5.971184E+00   6.653671E+00
 19  16   1.422487E+01   4.845415E+02   1.807143E+04   5.971184E+00   6.653671E+00
 19  17   1.422485E+01   4.845417E+02   1.807146E+04   5.971189E+00   6.653674E+00
 19  18   1.422485E+01   4.845416E+02   1.807146E+04   5.971188E+00   6.653674E+00
 19  19   1.193882E+01   3.446055E+02   1.098092E+04   5.508176E+00   6.352160E+00
 20   1   5.367980E+00   1.472593E+02   5.095285E+03   5.556826E+00   6.383841E+00
 20   2   5.367888E+00   1.472583E+02   5.095295E+03   5.556853E+00   6.383859E+00
 20   3   5.367976E+00   1.472593E+02   5.095286E+03   5.556827E+00   6.383842E+00
 20   4   5.368087E+00   1.472607E+02   5.095286E+03   5.556799E+00   6.383824E+00
 20   5   5.367960E+00   1.472591E+02   5.095286E+03   5.556832E+00   6.383845E+00
 20   6   5.367962E+00   1.472591E+02   5.095285E+03   5.556831E+00   6.383845E+00
 20   7   5.367993E+00   1.472595E+02   5.095284E+03   5.556822E+00   6.383839E+00
 20   8   5.367991E+00   1.472594E+02   5.095284E+03   5.556823E+00   6.383839E+00
 20   9   5.368077E+00   1.472606E+02   5.095287E+03   5.556802E+00   6.383826E+00
 20  10   5.367908E+00   1.472586E+02   5.095296E+03   5.556847E+00   6.383855E+00
 20  11   5.367908E+00   1.472586E+02   5.095295E+03   5.556847E+00   6.383855E+00
 20  12   5.368073E+00   1.472606E+02   5.095287E+03   5.556803E+00   6.383826E+00
 20  13   1.422486E+01   4.845408E+02   1.807140E+04   5.971182E+00   6.653670E+00
 20  14   1.422485E+01   4.845410E+02   1.807142E+04   5.971185E+00   6.653672E+00
 20  15   1.422487E+01   4.845408E+02   1.807140E+04   5.971181E+00   6.653670E+00
 20  16   1.422487E+01   4.845408E+02   1.807140E+04   5.971181E+00   6.653669E+00
 20  17   1.422485E+01   4.845410E+02   1.807143E+04   5.971186E+00   6.653672E+00
 20  18   1.422485E+01   4.845410E+02   1.807142E+04   5.971186E+00   6.653672E+00
 20  19   1.193882E+01   3.446050E+02   1.098089E+04   5.508173E+00   6.352158E+00
 20  20   1.193882E+01   3.446045E+02   1.098087E+04   5.508170E+00   6.352157E+00
 21   1   5.367979E+00   1.472592E+02   5.095282E+03   5.556826E+00   6.383841E+00
 21   2   5.367887E+00   1.472583E+02   5.095292E+03   5.556852E+00   6.383858E+00
 21   3   5.367976E+00   1.472592E+02   5.095283E+03   5.556827E+00   6.383842E+00
 21   4   5.368087E+00   1.472606E+02   5.095283E+03   5.556798E+00   6.383823E+00
 21   5   5.367959E+00   1.472590E+02   5.095283E+03   5.556831E+00   6.383845E+00
 21   6   5.367961E+00   1.472590E+02   5.095283E+03   5.556830E+00   6.383844E+00
 21   7   5.367993E+00   1.472594E+02   5.095281E+03   5.556822E+00   6.383839E+00
 21   8   5.367991E+00   1.472594E+02   5.095281E+03   5.556822E+00   6.383839E+00
 21   9   5.368076E+00   1.472605E+02   5.095284E+03   5.556801E+00   6.383825E+00
 21  10   5.367908E+00   1.472585E+02   5.095293E+03   5.556847E+00   6.383855E+00
 21  11   5.367907E+00   1.472585E+02   5.095292E+03   5.556847E+00   6.383855E+00
 21  12   5.368072E+00   1.472605E+02   5.095285E+03   5.556802E+00   6.383826E+00
 21  13   1.422486E+01   4.845406E+02   1.807139E+04   5.971181E+00   6.653670E+00
 21  14   1.422485E+01   4.845408E+02   1.807141E+04   5.971184E+00   6.653671E+00
 21  15   1.422487E+01   4.845406E+02   1.807139E+04   5.971181E+00   6.653669E+00
 21  16   1.422487E+01   4.845407E+02   1.807139E+04   5.971180E+00   6.653669E+00
 21  17   1.422485E+01   4.845409E+02   1.807142E+04   5.971185E+00   6.653672E+00
 21  18   1.422484E+01   4.845408E+02   1.807141E+04   5.971185E+00   6.653672E+00
 21  19   1.193882E+01   3.446049E+02   1.098089E+04   5.508172E+00   6.352158E+00
 21  20   1.193882E+01   3.446044E+02   1.098086E+04   5.508169E+00   6.352156E+00
 21  21   1.193882E+01   3.446043E+02   1.098085E+04   5.508169E+00   6.352156E+00
 22   1   5.367979E+00   1.472593E+02   5.095284E+03   5.556826E+00   6.383841E+00
 22   2   5.367888E+00   1.472583E+02   5.095294E+03   5.556852E+00   6.383859E+00
 22   3   5.367976E+00   1.472593E+02   5.095285E+03   5.556827E+00   6.383842E+00
 22   4   5.368087E+00   1.472607E+02   5.095285E+03   5.556798E+00   6.383823E+00
 22   5   5.367960E+00   1.472590E+02   5.095285E+03   5.556831E+00   6.383845E+00
 22   6   5.367962E+00   1.472591E+02   5.095285E+03   5.556831E+00   6.383844E+00
 22   7   5.367993E+00   1.472594E+02   5.095283E+03   5.556822E+00   6.383839E+00
 22   8   5.367991E+00   1.472594E+02   5.095283E+03   5.556823E+00   6.383839E+00
 22   9   5.368077E+00   1.472606E+02   5.095286E+03   5.556802E+00   6.383825E+00
 22  10   5.367908E+00   1.472586E+02   5.095295E+03   5.556847E+00   6.383855E+00
 22  11   5.367908E+00   1.472586E+02   5.095294E+03   5.556847E+00   6.383855E+00
 22  12   5.368073E+00   1.472605E+02   5.095287E+03   5.556803E+00   6.383826E+00
 22  13   1.422486E+01   4.845408E+02   1.807140E+04   5.971182E+00   6.653670E+00
 22  14   1.422485E+01   4.845409E+02   1.807142E+04   5.971185E+00   6.653672E+00
 22  15   1.422487E+01   4.845407E+02   1.807139E+04   5.971181E+00   6.653669E+00
 22  16   1.422487E+01   4.845408E+02   1.807139E+04   5.971181E+00   6.653669E+00
 22  17   1.422485E+01   4.845410E+02   1.807142E+04   5.971186E+00   6.653672E+00
 22  18   1.422485E+01   4.845409E+02   1.807142E+04   5.971186E+00   6.653672E+00
 22  19   1.193882E+01   3.446050E+02   1.098089E+04   5.508173E+00   6.352158E+00
 22  20   1.193882E+01   3.446045E+02   1.098087E+04   5.508170E+00   6.352156E+00
 22  21   1.193882E+01   3.446044E+02   1.098086E+04   5.508169E+00   6.352156E+00
 22  22   1.193882E+01   3.446044E+02   1.098086E+04   5.508170E+00   6.352156E+00
 
+ van der Waals energies, forces and stresses (Ry,bohr)
  Evdw(total,Ry)   =  -1.333571050424E-01
  Evdw(C6,Ry)      =  -6.508623345365E-02
  Evdw(C8,Ry)      =  -3.815560499933E-02
  Evdw(C10,Ry)     =  -3.011526658938E-02
  Fvdw (001,Ry/bohr) =   1.227796550563E-05  -7.357621126579E-05   2.242236028827E-05
  Fvdw (002,Ry/bohr) =   4.889628269939E-05   3.031367581287E-05   5.250440059347E-05
  Fvdw (003,Ry/bohr) =   1.227823656776E-05   5.620582974165E-05  -5.250790556790E-05
  Fvdw (004,Ry/bohr) =  -7.346803829244E-05  -1.294658152524E-05  -2.242311457252E-05
  Fvdw (005,Ry/bohr) =   4.889834594189E-05   3.031105824407E-05  -5.250676671292E-05
  Fvdw (006,Ry/bohr) =   4.889838792642E-05  -6.062754321941E-05  -2.572916839574E-09
  Fvdw (007,Ry/bohr) =  -7.346122989890E-05  -1.294907194009E-05   2.242302750404E-05
  Fvdw (008,Ry/bohr) =  -7.346094417350E-05   2.589325803788E-05  -2.546138747138E-09
  Fvdw (009,Ry/bohr) =   1.228270189506E-05  -7.358200115601E-05  -2.242238184812E-05
  Fvdw (010,Ry/bohr) =   1.228151174028E-05   5.620481967660E-05   5.250583274242E-05
  Fvdw (011,Ry/bohr) =   1.228134095290E-05   1.736932925645E-05   7.492745479036E-05
  Fvdw (012,Ry/bohr) =   1.228290391904E-05   1.737149522850E-05  -7.493498123768E-05
  Fvdw (013,Ry/bohr) =  -2.667046632732E-04   1.885783047558E-04   3.266204589171E-04
  Fvdw (014,Ry/bohr) =   2.667216997532E-04  -1.885725039469E-04  -3.266121827194E-04
  Fvdw (015,Ry/bohr) =   2.666983797859E-04  -1.885890505254E-04   3.266186593968E-04
  Fvdw (016,Ry/bohr) =   2.666976208080E-04   3.771558723966E-04  -1.650940331816E-08
  Fvdw (017,Ry/bohr) =  -2.666967310879E-04   1.886054924967E-04  -3.266139714126E-04
  Fvdw (018,Ry/bohr) =  -2.666966256737E-04  -3.771593166728E-04   3.236078344897E-08
  Fvdw (019,Ry/bohr) =   1.022897575307E-04   1.446588267674E-04   2.505536750981E-04
  Fvdw (020,Ry/bohr) =   1.022928062133E-04  -2.893284876845E-04   4.744416489537E-10
  Fvdw (021,Ry/bohr) =  -3.068817883208E-04   8.977921958111E-10   5.062768845800E-10
  Fvdw (022,Ry/bohr) =   1.022920794808E-04   1.446619077293E-04  -2.505662783025E-04
  sigma_vdw (Ry/bohr**3) =  -1.166110718503E-04   7.665240739536E-11   1.196476808131E-10  
                             7.665240739536E-11  -1.166109328781E-04   1.724063564439E-10  
                             1.196476808131E-10   1.724063564439E-10  -1.166107097404E-04  
  sigma_vdw (GPa) =  -1.715407802370E+00   1.127595653055E-06   1.760077854921E-06  
                      1.127595653055E-06  -1.715405758019E+00   2.536184637783E-06  
                      1.760077854921E-06   2.536184637783E-06  -1.715402475551E+00  
 

!    total energy              =    -238.63218761 Ry
     Harris-Foulkes estimate   =    -238.63218762 Ry
     estimated scf accuracy    <          1.0E-09 Ry

     total all-electron energy =      -910.387335 Ry

     The total energy is the sum of the following terms:

     one-electron contribution =    -137.39449616 Ry
     hartree contribution      =      91.14627307 Ry
     xc contribution           =     -55.74910554 Ry
     ewald contribution        =     -62.82995186 Ry
     Dispersion XDM Correction =      -0.13335711 Ry
     one-center paw contrib.   =     -73.67155003 Ry

     convergence has been achieved in  26 iterations

     Forces acting on atoms (Ry/au):

     atom    1 type  1   force =     0.00002461   -0.00006866   -0.00000149
     atom    2 type  1   force =     0.00008581    0.00003798    0.00006569
     atom    3 type  1   force =     0.00002389    0.00003566   -0.00006046
     atom    4 type  1   force =    -0.00004283    0.00003101    0.00005355
     atom    5 type  1   force =     0.00003640    0.00003543   -0.00006158
     atom    6 type  1   force =     0.00003471   -0.00007079   -0.00000020
     atom    7 type  1   force =    -0.00006928    0.00000440   -0.00000798
     atom    8 type  1   force =    -0.00006984   -0.00000800   -0.00000027
     atom    9 type  1   force =     0.00004043   -0.00003542    0.00004614
     atom   10 type  1   force =     0.00000978    0.00008344    0.00006457
     atom   11 type  1   force =     0.00000995    0.00001451    0.00010342
     atom   12 type  1   force =     0.00003998    0.00005706   -0.00000854
     atom   13 type  2   force =     0.00001555   -0.00002773   -0.00004092
     atom   14 type  2   force =    -0.00016134   -0.00003001   -0.00005026
     atom   15 type  2   force =    -0.00005156    0.00000139   -0.00002784
     atom   16 type  2   force =    -0.00004883   -0.00002734   -0.00001212
     atom   17 type  2   force =     0.00002148   -0.00014026   -0.00003823
     atom   18 type  2   force =     0.00002255    0.00003716   -0.00013730
     atom   19 type  3   force =     0.00001382    0.00000513    0.00000614
     atom   20 type  3   force =     0.00004455   -0.00000942    0.00004625
     atom   21 type  3   force =    -0.00002359    0.00002813    0.00004677
     atom   22 type  3   force =     0.00004376    0.00004634    0.00001465

     Total force =     0.000422     Total SCF correction =     0.000016


     entering subroutine stress ...

          total   stress  (Ry/bohr**3)                   (kbar)     P=   -0.01
   0.00000007  -0.00000007  -0.00000012          0.01     -0.01     -0.02
  -0.00000007  -0.00000007  -0.00000017         -0.01     -0.01     -0.03
  -0.00000012  -0.00000017  -0.00000027         -0.02     -0.03     -0.04


     BFGS Geometry Optimization

     number of scf cycles    =   1
     number of bfgs steps    =   0

     enthalpy new            =    -238.6321876143 Ry

     new trust radius        =       0.0001716345 bohr
     new conv_thr            =       0.0000000100 Ry

     new unit-cell volume =   1115.83656 a.u.^3 (   165.34992 Ang^3 )

CELL_PARAMETERS (alat=  1.00000000)
  11.317264841  -0.000026604  -0.000052804
  -3.772405609  10.670015843  -0.000052415
  -3.772411099  -5.334968095   9.240529914

ATOMIC_POSITIONS (crystal)
h       -0.000000783   0.243006341   0.427114191
h        0.184111463   0.756994153   0.756994470
h       -0.000000833   0.427114356   0.243006094
h        0.815895527   0.572888388   0.572888502
h        0.427114817  -0.000000944   0.243006010
h        0.427114842   0.243006022  -0.000000673
h        0.243006452  -0.000000701   0.427113946
h        0.243006205   0.427113901  -0.000000649
h        0.572887902   0.815895050   0.572888018
h        0.756994079   0.184110928   0.756994267
h        0.756994215   0.756994458   0.184110758
h        0.572888048   0.572888234   0.815895029
c       -0.000001098   0.244244100   0.244244221
c       -0.000008540   0.755750858   0.755751033
c        0.244243580  -0.000000925   0.244245007
c        0.244243647   0.244244819  -0.000000838
c        0.755751274  -0.000007246   0.755751575
c        0.755751528   0.755751881  -0.000007070
n        0.251179967   0.251179448   0.251179428
n        0.000003070   0.748821732   0.000002520
n        0.748821600   0.000002676   0.000002499
n        0.000003040   0.000002472   0.748821661



     Writing output data file crystal.save
     NEW-OLD atomic charge density approx. for the potential
     extrapolated charge   55.99963, renormalised to   56.00000

     total cpu time spent up to now is     2347.7 secs

     per-process dynamical memory:   183.2 Mb

     Self-consistent Calculation

     iteration #  1     ecut=    80.00 Ry     beta=0.70
     Davidson diagonalization with overlap
     ethr =  1.00E-06,  avg # of iterations =  2.0

     Threshold (ethr) on eigenvalues was too large:
     Diagonalizing with lowered threshold

     Davidson diagonalization with overlap
     ethr =  1.53E-11,  avg # of iterations =  4.9

     total cpu time spent up to now is     2547.9 secs

     total energy              =    -238.49882132 Ry
     Harris-Foulkes estimate   =    -238.49957888 Ry
     estimated scf accuracy    <       0.00000003 Ry

     iteration #  2     ecut=    80.00 Ry     beta=0.70
     Davidson diagonalization with overlap
     ethr =  5.04E-11,  avg # of iterations =  4.0

     total cpu time spent up to now is     2653.7 secs

     total energy              =    -238.49882133 Ry
     Harris-Foulkes estimate   =    -238.49882135 Ry
     estimated scf accuracy    <       0.00000004 Ry

     iteration #  3     ecut=    80.00 Ry     beta=0.70
     Davidson diagonalization with overlap
     ethr =  5.04E-11,  avg # of iterations =  3.0

     total cpu time spent up to now is     2736.0 secs

     End of self-consistent calculation

          k = 0.0110 0.0156 0.0271 ( 13451 PWs)   bands (ev):

   -18.2912 -15.2420 -15.2013 -15.2013 -10.3281 -10.3281  -9.0501  -9.0500
    -9.0276  -6.9216  -4.9828  -4.9828  -4.8100  -4.7165  -4.5936  -4.5936
    -2.4653  -2.1127  -2.1127  -1.8398  -1.8397  -1.6456  -1.6147  -1.6147
    -1.4537   1.6605   1.6605   1.9901

          k = 0.0110 0.0156 0.0541 ( 13466 PWs)   bands (ev):

   -18.2767 -15.2627 -15.2242 -15.2081 -10.3296 -10.2522  -9.1158  -9.0672
    -9.0187  -6.5810  -5.1761  -5.0834  -4.9120  -4.6221  -4.5666  -4.5219
    -2.6216  -2.3695  -2.0322  -1.8705  -1.6898  -1.6728  -1.6650  -1.6246
    -1.4858   1.6328   1.8644   2.1423

          k = 0.0110 0.0156-0.0271 ( 13451 PWs)   bands (ev):

   -18.2912 -15.2421 -15.2013 -15.2012 -10.3281 -10.3281  -9.0504  -9.0500
    -9.0273  -6.9216  -4.9828  -4.9825  -4.8103  -4.7167  -4.5935  -4.5934
    -2.4650  -2.1128  -2.1127  -1.8400  -1.8398  -1.6458  -1.6147  -1.6146
    -1.4538   1.6605   1.6605   1.9902

          k = 0.0110 0.0156 0.0000 ( 13472 PWs)   bands (ev):

   -18.3055 -15.2055 -15.1945 -15.1944 -10.3965 -10.3270  -9.0657  -8.9919
    -8.9916  -7.2123  -4.8883  -4.8088  -4.8088  -4.7535  -4.6170  -4.6168
    -2.3508  -2.1582  -1.9539  -1.8849  -1.8845  -1.5977  -1.5976  -1.5709
    -1.4148   1.6478   1.6856   1.6856

          k = 0.0110 0.0391 0.0406 ( 13466 PWs)   bands (ev):

   -18.2767 -15.2627 -15.2242 -15.2081 -10.3296 -10.2522  -9.1158  -9.0672
    -9.0187  -6.5810  -5.1761  -5.0834  -4.9120  -4.6221  -4.5666  -4.5219
    -2.6216  -2.3695  -2.0322  -1.8705  -1.6898  -1.6728  -1.6650  -1.6246
    -1.4859   1.6328   1.8644   2.1423

          k = 0.0110 0.0391 0.0676 ( 13464 PWs)   bands (ev):

   -18.2767 -15.2628 -15.2242 -15.2080 -10.3296 -10.2522  -9.1160  -9.0670
    -9.0187  -6.5811  -5.1759  -5.0836  -4.9119  -4.6222  -4.5666  -4.5218
    -2.6214  -2.3694  -2.0325  -1.8705  -1.6899  -1.6726  -1.6651  -1.6245
    -1.4859   1.6329   1.8645   2.1423

          k = 0.0110 0.0391-0.0135 ( 13480 PWs)   bands (ev):

   -18.2808 -15.2580 -15.2133 -15.2021 -10.4243 -10.3029  -9.0905  -9.0016
    -8.9435  -6.7795  -5.1308  -4.9287  -4.7446  -4.6282  -4.5632  -4.5177
    -2.6557  -2.3046  -2.2299  -2.0368  -1.7968  -1.6499  -1.6208  -1.5719
    -1.4492   1.6443   1.8956   2.1543

          k = 0.0110 0.0391 0.0135 ( 13480 PWs)   bands (ev):

   -18.2808 -15.2579 -15.2133 -15.2022 -10.4243 -10.3029  -9.0904  -9.0017
    -8.9435  -6.7795  -5.1309  -4.9286  -4.7446  -4.6282  -4.5632  -4.5178
    -2.6558  -2.3048  -2.2297  -2.0366  -1.7969  -1.6498  -1.6208  -1.5719
    -1.4491   1.6442   1.8956   2.1542

          k = 0.0110-0.0312 0.0000 ( 13451 PWs)   bands (ev):

   -18.2912 -15.2421 -15.2013 -15.2012 -10.3281 -10.3281  -9.0504  -9.0500
    -9.0273  -6.9216  -4.9828  -4.9825  -4.8103  -4.7167  -4.5935  -4.5934
    -2.4650  -2.1128  -2.1127  -1.8400  -1.8398  -1.6458  -1.6147  -1.6146
    -1.4538   1.6605   1.6605   1.9902

          k = 0.0110-0.0312 0.0271 ( 13480 PWs)   bands (ev):

   -18.2808 -15.2580 -15.2133 -15.2021 -10.4243 -10.3029  -9.0905  -9.0016
    -8.9435  -6.7795  -5.1308  -4.9287  -4.7446  -4.6282  -4.5632  -4.5177
    -2.6557  -2.3046  -2.2299  -2.0368  -1.7968  -1.6499  -1.6208  -1.5719
    -1.4492   1.6443   1.8956   2.1543

          k = 0.0110-0.0312-0.0541 ( 13504 PWs)   bands (ev):

   -18.2703 -15.2480 -15.2479 -15.2067 -10.4029 -10.4029  -9.0158  -8.9579
    -8.9576  -6.6499  -4.9284  -4.9233  -4.9230  -4.5490  -4.5489  -4.4920
    -2.6722  -2.6720  -2.2895  -1.9593  -1.9592  -1.6091  -1.6091  -1.5868
    -1.5607   1.7530   2.1785   2.1785

          k = 0.0110-0.0312-0.0271 ( 13480 PWs)   bands (ev):

   -18.2808 -15.2579 -15.2133 -15.2022 -10.4243 -10.3029  -9.0904  -9.0017
    -8.9435  -6.7795  -5.1309  -4.9286  -4.7446  -4.6282  -4.5632  -4.5178
    -2.6558  -2.3048  -2.2297  -2.0366  -1.7969  -1.6498  -1.6208  -1.5719
    -1.4491   1.6442   1.8956   2.1542

          k = 0.0110-0.0078 0.0135 ( 13472 PWs)   bands (ev):

   -18.3055 -15.2055 -15.1945 -15.1944 -10.3965 -10.3270  -9.0657  -8.9919
    -8.9916  -7.2123  -4.8883  -4.8088  -4.8088  -4.7535  -4.6170  -4.6168
    -2.3507  -2.1582  -1.9539  -1.8849  -1.8845  -1.5977  -1.5976  -1.5709
    -1.4148   1.6477   1.6856   1.6856

          k = 0.0110-0.0078 0.0406 ( 13480 PWs)   bands (ev):

   -18.2808 -15.2579 -15.2133 -15.2022 -10.4243 -10.3029  -9.0904  -9.0017
    -8.9435  -6.7795  -5.1309  -4.9286  -4.7446  -4.6282  -4.5632  -4.5178
    -2.6558  -2.3048  -2.2297  -2.0366  -1.7969  -1.6498  -1.6208  -1.5720
    -1.4491   1.6442   1.8956   2.1542

          k = 0.0110-0.0078-0.0406 ( 13480 PWs)   bands (ev):

   -18.2808 -15.2579 -15.2133 -15.2022 -10.4243 -10.3029  -9.0903  -9.0017
    -8.9435  -6.7795  -5.1309  -4.9286  -4.7446  -4.6282  -4.5632  -4.5178
    -2.6558  -2.3048  -2.2297  -2.0366  -1.7969  -1.6498  -1.6208  -1.5720
    -1.4491   1.6442   1.8956   2.1542

          k = 0.0110-0.0078-0.0135 ( 13470 PWs)   bands (ev):

   -18.3055 -15.2055 -15.1945 -15.1944 -10.3965 -10.3270  -9.0657  -8.9919
    -8.9917  -7.2123  -4.8883  -4.8088  -4.8088  -4.7535  -4.6170  -4.6169
    -2.3508  -2.1582  -1.9539  -1.8848  -1.8846  -1.5977  -1.5976  -1.5709
    -1.4148   1.6477   1.6856   1.6856

          k = 0.0331 0.0234 0.0406 ( 13466 PWs)   bands (ev):

   -18.2767 -15.2627 -15.2242 -15.2081 -10.3296 -10.2522  -9.1158  -9.0672
    -9.0187  -6.5810  -5.1760  -5.0835  -4.9120  -4.6221  -4.5666  -4.5219
    -2.6215  -2.3694  -2.0322  -1.8705  -1.6898  -1.6728  -1.6650  -1.6246
    -1.4859   1.6328   1.8644   2.1423

          k = 0.0331 0.0234 0.0676 ( 13465 PWs)   bands (ev):

   -18.2767 -15.2628 -15.2242 -15.2080 -10.3296 -10.2522  -9.1161  -9.0670
    -9.0187  -6.5811  -5.1758  -5.0837  -4.9119  -4.6222  -4.5666  -4.5217
    -2.6214  -2.3694  -2.0325  -1.8705  -1.6899  -1.6726  -1.6651  -1.6245
    -1.4860   1.6329   1.8645   2.1423

          k = 0.0331 0.0234-0.0135 ( 13480 PWs)   bands (ev):

   -18.2808 -15.2580 -15.2133 -15.2021 -10.4243 -10.3029  -9.0905  -9.0015
    -8.9435  -6.7795  -5.1308  -4.9288  -4.7446  -4.6282  -4.5632  -4.5177
    -2.6556  -2.3046  -2.2299  -2.0368  -1.7968  -1.6499  -1.6208  -1.5719
    -1.4492   1.6443   1.8956   2.1543

          k = 0.0331 0.0234 0.0135 ( 13480 PWs)   bands (ev):

   -18.2808 -15.2580 -15.2133 -15.2022 -10.4243 -10.3029  -9.0904  -9.0017
    -8.9435  -6.7795  -5.1309  -4.9286  -4.7446  -4.6282  -4.5632  -4.5178
    -2.6558  -2.3048  -2.2297  -2.0366  -1.7968  -1.6498  -1.6208  -1.5719
    -1.4491   1.6442   1.8956   2.1542

          k = 0.0331 0.0469 0.0541 ( 13464 PWs)   bands (ev):

   -18.2767 -15.2628 -15.2242 -15.2080 -10.3296 -10.2522  -9.1161  -9.0670
    -9.0187  -6.5811  -5.1758  -5.0837  -4.9119  -4.6222  -4.5666  -4.5217
    -2.6214  -2.3694  -2.0325  -1.8705  -1.6899  -1.6726  -1.6651  -1.6245
    -1.4860   1.6329   1.8645   2.1423

          k = 0.0331 0.0469 0.0812 ( 13504 PWs)   bands (ev):

   -18.2703 -15.2481 -15.2480 -15.2066 -10.4029 -10.4029  -9.0162  -8.9576
    -8.9575  -6.6500  -4.9280  -4.9234  -4.9234  -4.5490  -4.5490  -4.4918
    -2.6720  -2.6720  -2.2897  -1.9592  -1.9592  -1.6092  -1.6092  -1.5867
    -1.5609   1.7529   2.1785   2.1786

          k = 0.0331 0.0469 0.0000 ( 13496 PWs)   bands (ev):

   -18.2640 -15.2442 -15.2331 -15.2330 -10.5308 -10.4709  -8.9350  -8.8734
    -8.8731  -6.7070  -4.9057  -4.7292  -4.7289  -4.5217  -4.4840  -4.4839
    -2.7445  -2.5611  -2.5608  -2.4068  -2.1128  -1.7852  -1.5591  -1.5590
    -1.5374   2.1781   2.2107   2.2108

          k = 0.0331 0.0469 0.0271 ( 13504 PWs)   bands (ev):

   -18.2703 -15.2481 -15.2479 -15.2067 -10.4029 -10.4029  -9.0159  -8.9579
    -8.9576  -6.6499  -4.9284  -4.9234  -4.9230  -4.5490  -4.5489  -4.4919
    -2.6722  -2.6720  -2.2895  -1.9593  -1.9592  -1.6091  -1.6091  -1.5868
    -1.5608   1.7529   2.1785   2.1786

          k = 0.0331-0.0234 0.0135 ( 13480 PWs)   bands (ev):

   -18.2808 -15.2580 -15.2133 -15.2021 -10.4243 -10.3029  -9.0905  -9.0015
    -8.9435  -6.7795  -5.1308  -4.9288  -4.7446  -4.6282  -4.5632  -4.5177
    -2.6556  -2.3046  -2.2299  -2.0368  -1.7968  -1.6499  -1.6208  -1.5719
    -1.4492   1.6442   1.8956   2.1543

          k = 0.0331-0.0234 0.0406 ( 13496 PWs)   bands (ev):

   -18.2640 -15.2442 -15.2331 -15.2330 -10.5308 -10.4709  -8.9350  -8.8734
    -8.8731  -6.7070  -4.9057  -4.7292  -4.7289  -4.5217  -4.4840  -4.4839
    -2.7445  -2.5611  -2.5608  -2.4068  -2.1128  -1.7852  -1.5591  -1.5590
    -1.5374   2.1781   2.2107   2.2108

          k = 0.0331-0.0234-0.0406 ( 13496 PWs)   bands (ev):

   -18.2640 -15.2442 -15.2330 -15.2330 -10.5308 -10.4709  -8.9350  -8.8734
    -8.8732  -6.7070  -4.9057  -4.7291  -4.7289  -4.5217  -4.4840  -4.4839
    -2.7445  -2.5610  -2.5609  -2.4068  -2.1128  -1.7852  -1.5591  -1.5590
    -1.5374   2.1781   2.2107   2.2108

          k = 0.0331-0.0234-0.0135 ( 13480 PWs)   bands (ev):

   -18.2808 -15.2580 -15.2133 -15.2021 -10.4243 -10.3029  -9.0905  -9.0015
    -8.9435  -6.7795  -5.1308  -4.9288  -4.7446  -4.6282  -4.5632  -4.5177
    -2.6556  -2.3046  -2.2299  -2.0368  -1.7968  -1.6499  -1.6208  -1.5719
    -1.4492   1.6442   1.8956   2.1543

          k = 0.0331 0.0000 0.0271 ( 13480 PWs)   bands (ev):

   -18.2808 -15.2580 -15.2133 -15.2022 -10.4243 -10.3029  -9.0904  -9.0017
    -8.9435  -6.7795  -5.1309  -4.9286  -4.7446  -4.6282  -4.5632  -4.5178
    -2.6558  -2.3048  -2.2297  -2.0366  -1.7968  -1.6498  -1.6208  -1.5719
    -1.4491   1.6442   1.8956   2.1542

          k = 0.0331 0.0000 0.0541 ( 13504 PWs)   bands (ev):

   -18.2703 -15.2481 -15.2479 -15.2067 -10.4029 -10.4029  -9.0159  -8.9579
    -8.9576  -6.6499  -4.9284  -4.9233  -4.9230  -4.5490  -4.5489  -4.4919
    -2.6722  -2.6720  -2.2895  -1.9593  -1.9592  -1.6091  -1.6091  -1.5868
    -1.5607   1.7529   2.1785   2.1785

          k = 0.0331 0.0000-0.0271 ( 13480 PWs)   bands (ev):

   -18.2808 -15.2580 -15.2133 -15.2021 -10.4243 -10.3029  -9.0905  -9.0015
    -8.9435  -6.7795  -5.1308  -4.9288  -4.7446  -4.6282  -4.5632  -4.5177
    -2.6556  -2.3046  -2.2299  -2.0368  -1.7968  -1.6499  -1.6208  -1.5719
    -1.4492   1.6443   1.8956   2.1543

          k = 0.0331 0.0000 0.0000 ( 13451 PWs)   bands (ev):

   -18.2912 -15.2421 -15.2013 -15.2012 -10.3281 -10.3281  -9.0504  -9.0501
    -9.0272  -6.9216  -4.9828  -4.9825  -4.8104  -4.7167  -4.5935  -4.5933
    -2.4650  -2.1128  -2.1127  -1.8400  -1.8398  -1.6458  -1.6147  -1.6146
    -1.4538   1.6605   1.6605   1.9902

     highest occupied level (ev):     2.2108

* XDM dispersion
  a1 =     0.651200
  a2 (ang) =     1.463300
  a2 (bohr) =     2.765236
 
+ van der Waals energies, forces and stresses (Ry,bohr)
  Evdw(total,Ry)   =  -1.333579327285E-01
  Evdw(C6,Ry)      =  -6.508665661362E-02
  Evdw(C8,Ry)      =  -3.815583442532E-02
  Evdw(C10,Ry)     =  -3.011544168954E-02
  Fvdw (001,Ry/bohr) =   1.227857971028E-05  -7.356097107882E-05   2.242845560634E-05
  Fvdw (002,Ry/bohr) =   4.889711341205E-05   3.030280193327E-05   5.248534355204E-05
  Fvdw (003,Ry/bohr) =   1.227892641931E-05   5.620352881714E-05  -5.249169743361E-05
  Fvdw (004,Ry/bohr) =  -7.345027479738E-05  -1.294913534879E-05  -2.242761928746E-05
  Fvdw (005,Ry/bohr) =   4.889551675718E-05   3.031038138724E-05  -5.249212988346E-05
  Fvdw (006,Ry/bohr) =   4.889540397506E-05  -6.061478647092E-05   4.040098370717E-09
  Fvdw (007,Ry/bohr) =  -7.344841588916E-05  -1.294385903104E-05   2.242733809724E-05
  Fvdw (008,Ry/bohr) =  -7.344835304563E-05   2.589411925520E-05   4.078099081991E-09
  Fvdw (009,Ry/bohr) =   1.227443541365E-05  -7.356470800222E-05  -2.242861005492E-05
  Fvdw (010,Ry/bohr) =   1.227142976948E-05   5.620251311150E-05   5.248527991934E-05
  Fvdw (011,Ry/bohr) =   1.227097353883E-05   1.735247777049E-05   7.491511497905E-05
  Fvdw (012,Ry/bohr) =   1.227443613998E-05   1.735727733412E-05  -7.492309620495E-05
  Fvdw (013,Ry/bohr) =  -2.666932227349E-04   1.886007718399E-04   3.266609765495E-04
  Fvdw (014,Ry/bohr) =   2.666934481609E-04  -1.886031471189E-04  -3.266660172187E-04
  Fvdw (015,Ry/bohr) =   2.667079014436E-04  -1.885778967847E-04   3.266604732374E-04
  Fvdw (016,Ry/bohr) =   2.667079301541E-04   3.771862241376E-04   1.357685820060E-08
  Fvdw (017,Ry/bohr) =  -2.667116896840E-04   1.885784518036E-04  -3.266660373108E-04
  Fvdw (018,Ry/bohr) =  -2.667120318875E-04  -3.771907913107E-04  -1.640430337935E-08
  Fvdw (019,Ry/bohr) =   1.023031441169E-04   1.446778303334E-04   2.505861358065E-04
  Fvdw (020,Ry/bohr) =   1.022917404183E-04  -2.893233075361E-04   1.305395008350E-09
  Fvdw (021,Ry/bohr) =  -3.068680299076E-04   1.627074322136E-09   1.337817211522E-09
  Fvdw (022,Ry/bohr) =   1.022910385164E-04   1.446605978844E-04  -2.505618443180E-04
  sigma_vdw (Ry/bohr**3) =  -1.166115721009E-04  -1.083893210186E-10  -1.871887192247E-10  
                            -1.083893210186E-10  -1.166117676896E-04  -2.627516341027E-10  
                            -1.871887192247E-10  -2.627516341027E-10  -1.166120683000E-04  
  sigma_vdw (GPa) =  -1.715415161310E+00  -1.594461692348E-06  -2.753640665322E-06  
                     -1.594461692348E-06  -1.715418038518E+00  -3.865209332816E-06  
                     -2.753640665322E-06  -3.865209332816E-06  -1.715422460649E+00  
 

!    total energy              =    -238.63217926 Ry
     Harris-Foulkes estimate   =    -238.63217926 Ry
     estimated scf accuracy    <          4.0E-09 Ry

     total all-electron energy =      -910.387327 Ry

     The total energy is the sum of the following terms:

     one-electron contribution =    -137.39588594 Ry
     hartree contribution      =      91.14652066 Ry
     xc contribution           =     -55.74897046 Ry
     ewald contribution        =     -62.82894240 Ry
     Dispersion XDM Correction =      -0.13335793 Ry
     one-center paw contrib.   =     -73.67154319 Ry

     convergence has been achieved in   3 iterations

     Forces acting on atoms (Ry/au):

     atom    1 type  1   force =     0.00002847   -0.00004777   -0.00001709
     atom    2 type  1   force =    -0.00005916    0.00002516    0.00004383
     atom    3 type  1   force =     0.00002917    0.00000641   -0.00004958
     atom    4 type  1   force =    -0.00008225   -0.00001890   -0.00003261
     atom    5 type  1   force =    -0.00001299    0.00002913   -0.00004833
     atom    6 type  1   force =    -0.00001189   -0.00005684    0.00000109
     atom    7 type  1   force =    -0.00005830    0.00000681   -0.00000994
     atom    8 type  1   force =    -0.00005763   -0.00001358    0.00000100
     atom    9 type  1   force =     0.00001178   -0.00007934   -0.00002631
     atom   10 type  1   force =     0.00004057   -0.00003702    0.00004480
     atom   11 type  1   force =     0.00004029    0.00005699   -0.00000872
     atom   12 type  1   force =     0.00001226    0.00001749   -0.00008025
     atom   13 type  2   force =    -0.00001188    0.00002311    0.00003330
     atom   14 type  2   force =     0.00015204    0.00003174    0.00005358
     atom   15 type  2   force =     0.00004548    0.00000058    0.00002079
     atom   16 type  2   force =     0.00004270    0.00001962    0.00001052
     atom   17 type  2   force =    -0.00001702    0.00013287    0.00004175
     atom   18 type  2   force =    -0.00001785   -0.00003009    0.00013261
     atom   19 type  3   force =    -0.00001101   -0.00000116    0.00000042
     atom   20 type  3   force =    -0.00003774   -0.00000175   -0.00004331
     atom   21 type  3   force =     0.00001149   -0.00002624   -0.00004334
     atom   22 type  3   force =    -0.00003652   -0.00003723   -0.00002421

     Total force =     0.000375     Total SCF correction =     0.000169
     SCF correction compared to forces is large: reduce conv_thr to get better values


     entering subroutine stress ...

          total   stress  (Ry/bohr**3)                   (kbar)     P=   -0.07
  -0.00000064   0.00000007   0.00000012         -0.09      0.01      0.02
   0.00000007  -0.00000051   0.00000016          0.01     -0.07      0.02
   0.00000012   0.00000016  -0.00000031          0.02      0.02     -0.05


     number of scf cycles    =   2
     number of bfgs steps    =   1

     enthalpy old            =    -238.6321876143 Ry
     enthalpy new            =    -238.6321792611 Ry

     CASE: enthalpy_new > enthalpy_old

     new trust radius        =       0.0000018383 bohr

     trust_radius < trust_radius_min

     resetting bfgs history

     new conv_thr            =       0.0000000100 Ry

     new unit-cell volume =   1115.83656 a.u.^3 (   165.34992 Ang^3 )

CELL_PARAMETERS (alat=  1.00000000)
  11.317264842  -0.000026604  -0.000052804
  -3.772405609  10.670015843  -0.000052414
  -3.772411099  -5.334968095   9.240529914

ATOMIC_POSITIONS (crystal)
h       -0.000000783   0.243006341   0.427114191
h        0.184111463   0.756994153   0.756994470
h       -0.000000833   0.427114356   0.243006094
h        0.815895527   0.572888388   0.572888503
h        0.427114817  -0.000000944   0.243006010
h        0.427114842   0.243006021  -0.000000673
h        0.243006452  -0.000000701   0.427113946
h        0.243006205   0.427113901  -0.000000649
h        0.572887902   0.815895050   0.572888019
h        0.756994079   0.184110928   0.756994267
h        0.756994215   0.756994458   0.184110758
h        0.572888048   0.572888234   0.815895029
c       -0.000001098   0.244244100   0.244244220
c       -0.000008541   0.755750858   0.755751033
c        0.244243580  -0.000000925   0.244245007
c        0.244243647   0.244244819  -0.000000838
c        0.755751274  -0.000007246   0.755751575
c        0.755751527   0.755751880  -0.000007070
n        0.251179967   0.251179448   0.251179428
n        0.000003070   0.748821732   0.000002520
n        0.748821600   0.000002676   0.000002500
n        0.000003040   0.000002473   0.748821661



     Writing output data file crystal.save
     NEW-OLD atomic charge density approx. for the potential

     total cpu time spent up to now is     2784.7 secs

[...]
 15   4   6.555283E+00   2.139119E+02   8.429977E+03   5.992814E+00   6.667757E+00
 15   5   6.555411E+00   2.139139E+02   8.429979E+03   5.992785E+00   6.667738E+00
 15   6   6.555408E+00   2.139139E+02   8.429979E+03   5.992786E+00   6.667738E+00
 15   7   6.555376E+00   2.139134E+02   8.429980E+03   5.992794E+00   6.667743E+00
 15   8   6.555379E+00   2.139135E+02   8.429981E+03   5.992793E+00   6.667743E+00
 15   9   6.555296E+00   2.139121E+02   8.429974E+03   5.992811E+00   6.667755E+00
 15  10   6.555462E+00   2.139145E+02   8.429965E+03   5.992771E+00   6.667729E+00
 15  11   6.555458E+00   2.139144E+02   8.429963E+03   5.992772E+00   6.667729E+00
 15  12   6.555297E+00   2.139121E+02   8.429973E+03   5.992810E+00   6.667754E+00
 15  13   1.774347E+01   6.966434E+02   2.965873E+04   6.394960E+00   6.929634E+00
 15  14   1.774348E+01   6.966432E+02   2.965870E+04   6.394957E+00   6.929632E+00
 15  15   1.774347E+01   6.966436E+02   2.965873E+04   6.394960E+00   6.929634E+00
 16   1   6.555389E+00   2.139136E+02   8.429978E+03   5.992790E+00   6.667741E+00
 16   2   6.555480E+00   2.139148E+02   8.429966E+03   5.992767E+00   6.667726E+00
 16   3   6.555394E+00   2.139137E+02   8.429978E+03   5.992789E+00   6.667741E+00
 16   4   6.555284E+00   2.139120E+02   8.429977E+03   5.992814E+00   6.667757E+00
 16   5   6.555411E+00   2.139139E+02   8.429979E+03   5.992785E+00   6.667738E+00
 16   6   6.555409E+00   2.139139E+02   8.429979E+03   5.992786E+00   6.667738E+00
 16   7   6.555377E+00   2.139134E+02   8.429980E+03   5.992793E+00   6.667743E+00
 16   8   6.555379E+00   2.139135E+02   8.429981E+03   5.992793E+00   6.667743E+00
 16   9   6.555296E+00   2.139121E+02   8.429974E+03   5.992811E+00   6.667755E+00
 16  10   6.555463E+00   2.139145E+02   8.429965E+03   5.992771E+00   6.667729E+00
 16  11   6.555459E+00   2.139144E+02   8.429963E+03   5.992772E+00   6.667729E+00
 16  12   6.555297E+00   2.139121E+02   8.429973E+03   5.992810E+00   6.667754E+00
 16  13   1.774347E+01   6.966435E+02   2.965873E+04   6.394960E+00   6.929634E+00
 16  14   1.774348E+01   6.966432E+02   2.965870E+04   6.394957E+00   6.929632E+00
 16  15   1.774347E+01   6.966436E+02   2.965873E+04   6.394960E+00   6.929634E+00
 16  16   1.774347E+01   6.966436E+02   2.965873E+04   6.394960E+00   6.929634E+00
 17   1   6.555395E+00   2.139134E+02   8.429964E+03   5.992787E+00   6.667739E+00
 17   2   6.555486E+00   2.139146E+02   8.429953E+03   5.992764E+00   6.667724E+00
 17   3   6.555400E+00   2.139135E+02   8.429965E+03   5.992786E+00   6.667738E+00
 17   4   6.555289E+00   2.139118E+02   8.429964E+03   5.992811E+00   6.667755E+00
 17   5   6.555417E+00   2.139138E+02   8.429966E+03   5.992782E+00   6.667736E+00
 17   6   6.555414E+00   2.139137E+02   8.429966E+03   5.992782E+00   6.667736E+00
 17   7   6.555382E+00   2.139132E+02   8.429967E+03   5.992790E+00   6.667741E+00
 17   8   6.555385E+00   2.139133E+02   8.429968E+03   5.992789E+00   6.667741E+00
 17   9   6.555302E+00   2.139119E+02   8.429961E+03   5.992807E+00   6.667752E+00
 17  10   6.555468E+00   2.139143E+02   8.429952E+03   5.992768E+00   6.667727E+00
 17  11   6.555464E+00   2.139142E+02   8.429950E+03   5.992768E+00   6.667727E+00
 17  12   6.555303E+00   2.139119E+02   8.429960E+03   5.992807E+00   6.667752E+00
 17  13   1.774349E+01   6.966430E+02   2.965868E+04   6.394956E+00   6.929632E+00
 17  14   1.774350E+01   6.966427E+02   2.965865E+04   6.394953E+00   6.929630E+00
 17  15   1.774349E+01   6.966431E+02   2.965869E+04   6.394956E+00   6.929632E+00
 17  16   1.774349E+01   6.966431E+02   2.965869E+04   6.394956E+00   6.929632E+00
 17  17   1.774350E+01   6.966426E+02   2.965864E+04   6.394953E+00   6.929629E+00
 18   1   6.555393E+00   2.139134E+02   8.429964E+03   5.992787E+00   6.667739E+00
 18   2   6.555484E+00   2.139146E+02   8.429952E+03   5.992764E+00   6.667724E+00
 18   3   6.555398E+00   2.139134E+02   8.429964E+03   5.992786E+00   6.667738E+00
 18   4   6.555288E+00   2.139117E+02   8.429964E+03   5.992811E+00   6.667755E+00
 18   5   6.555415E+00   2.139137E+02   8.429966E+03   5.992782E+00   6.667736E+00
 18   6   6.555413E+00   2.139137E+02   8.429965E+03   5.992783E+00   6.667736E+00
 18   7   6.555381E+00   2.139132E+02   8.429967E+03   5.992790E+00   6.667741E+00
 18   8   6.555384E+00   2.139133E+02   8.429967E+03   5.992790E+00   6.667741E+00
 18   9   6.555300E+00   2.139119E+02   8.429961E+03   5.992807E+00   6.667752E+00
 18  10   6.555467E+00   2.139143E+02   8.429951E+03   5.992768E+00   6.667727E+00
 18  11   6.555463E+00   2.139142E+02   8.429950E+03   5.992768E+00   6.667727E+00
 18  12   6.555301E+00   2.139119E+02   8.429959E+03   5.992807E+00   6.667752E+00
 18  13   1.774348E+01   6.966429E+02   2.965868E+04   6.394956E+00   6.929632E+00
 18  14   1.774349E+01   6.966426E+02   2.965865E+04   6.394954E+00   6.929630E+00
 18  15   1.774348E+01   6.966430E+02   2.965869E+04   6.394957E+00   6.929632E+00
 18  16   1.774348E+01   6.966430E+02   2.965869E+04   6.394956E+00   6.929632E+00
 18  17   1.774350E+01   6.966425E+02   2.965864E+04   6.394953E+00   6.929630E+00
 18  18   1.774349E+01   6.966424E+02   2.965864E+04   6.394953E+00   6.929630E+00
 19   1   5.368008E+00   1.472597E+02   5.095294E+03   5.556821E+00   6.383838E+00
 19   2   5.368095E+00   1.472607E+02   5.095286E+03   5.556797E+00   6.383822E+00
 19   3   5.368013E+00   1.472598E+02   5.095294E+03   5.556820E+00   6.383838E+00
 19   4   5.367907E+00   1.472584E+02   5.095295E+03   5.556848E+00   6.383855E+00
 19   5   5.368029E+00   1.472600E+02   5.095295E+03   5.556816E+00   6.383835E+00
 19   6   5.368027E+00   1.472600E+02   5.095295E+03   5.556817E+00   6.383835E+00
 19   7   5.367996E+00   1.472596E+02   5.095296E+03   5.556825E+00   6.383841E+00
 19   8   5.367998E+00   1.472596E+02   5.095296E+03   5.556825E+00   6.383840E+00
 19   9   5.367919E+00   1.472585E+02   5.095293E+03   5.556844E+00   6.383853E+00
 19  10   5.368079E+00   1.472605E+02   5.095285E+03   5.556801E+00   6.383825E+00
 19  11   5.368075E+00   1.472604E+02   5.095285E+03   5.556801E+00   6.383825E+00
 19  12   5.367920E+00   1.472585E+02   5.095292E+03   5.556844E+00   6.383853E+00
 19  13   1.422476E+01   4.845391E+02   1.807142E+04   5.971195E+00   6.653678E+00
 19  14   1.422477E+01   4.845389E+02   1.807140E+04   5.971192E+00   6.653677E+00
 19  15   1.422476E+01   4.845392E+02   1.807143E+04   5.971195E+00   6.653679E+00
 19  16   1.422476E+01   4.845392E+02   1.807143E+04   5.971195E+00   6.653679E+00
 19  17   1.422477E+01   4.845389E+02   1.807140E+04   5.971191E+00   6.653676E+00
 19  18   1.422477E+01   4.845388E+02   1.807140E+04   5.971192E+00   6.653676E+00
 19  19   1.193872E+01   3.446018E+02   1.098081E+04   5.508175E+00   6.352160E+00
 20   1   5.368003E+00   1.472598E+02   5.095305E+03   5.556826E+00   6.383841E+00
 20   2   5.368090E+00   1.472608E+02   5.095296E+03   5.556801E+00   6.383825E+00
 20   3   5.368007E+00   1.472599E+02   5.095305E+03   5.556824E+00   6.383840E+00
 20   4   5.367902E+00   1.472585E+02   5.095305E+03   5.556852E+00   6.383858E+00
 20   5   5.368024E+00   1.472601E+02   5.095305E+03   5.556820E+00   6.383838E+00
 20   6   5.368021E+00   1.472601E+02   5.095305E+03   5.556821E+00   6.383838E+00
 20   7   5.367991E+00   1.472597E+02   5.095306E+03   5.556829E+00   6.383843E+00
 20   8   5.367993E+00   1.472598E+02   5.095307E+03   5.556829E+00   6.383843E+00
 20   9   5.367914E+00   1.472587E+02   5.095303E+03   5.556848E+00   6.383856E+00
 20  10   5.368074E+00   1.472606E+02   5.095296E+03   5.556805E+00   6.383828E+00
 20  11   5.368070E+00   1.472605E+02   5.095295E+03   5.556806E+00   6.383828E+00
 20  12   5.367915E+00   1.472587E+02   5.095302E+03   5.556848E+00   6.383855E+00
 20  13   1.422475E+01   4.845394E+02   1.807146E+04   5.971199E+00   6.653681E+00
 20  14   1.422476E+01   4.845392E+02   1.807144E+04   5.971196E+00   6.653679E+00
 20  15   1.422475E+01   4.845395E+02   1.807146E+04   5.971199E+00   6.653681E+00
 20  16   1.422475E+01   4.845395E+02   1.807146E+04   5.971199E+00   6.653681E+00
 20  17   1.422476E+01   4.845392E+02   1.807143E+04   5.971195E+00   6.653679E+00
 20  18   1.422476E+01   4.845391E+02   1.807143E+04   5.971196E+00   6.653679E+00
 20  19   1.193871E+01   3.446020E+02   1.098084E+04   5.508179E+00   6.352163E+00
 20  20   1.193869E+01   3.446022E+02   1.098086E+04   5.508184E+00   6.352165E+00
 21   1   5.368001E+00   1.472598E+02   5.095306E+03   5.556826E+00   6.383842E+00
 21   2   5.368089E+00   1.472608E+02   5.095298E+03   5.556802E+00   6.383825E+00
 21   3   5.368006E+00   1.472599E+02   5.095306E+03   5.556825E+00   6.383841E+00
 21   4   5.367900E+00   1.472586E+02   5.095306E+03   5.556853E+00   6.383859E+00
 21   5   5.368022E+00   1.472601E+02   5.095307E+03   5.556821E+00   6.383838E+00
 21   6   5.368020E+00   1.472601E+02   5.095307E+03   5.556822E+00   6.383839E+00
 21   7   5.367989E+00   1.472597E+02   5.095308E+03   5.556830E+00   6.383844E+00
 21   8   5.367991E+00   1.472598E+02   5.095308E+03   5.556830E+00   6.383844E+00
 21   9   5.367912E+00   1.472587E+02   5.095305E+03   5.556849E+00   6.383856E+00
 21  10   5.368072E+00   1.472606E+02   5.095297E+03   5.556806E+00   6.383828E+00
 21  11   5.368069E+00   1.472605E+02   5.095297E+03   5.556806E+00   6.383829E+00
 21  12   5.367913E+00   1.472587E+02   5.095304E+03   5.556849E+00   6.383856E+00
 21  13   1.422474E+01   4.845394E+02   1.807146E+04   5.971200E+00   6.653681E+00
 21  14   1.422475E+01   4.845392E+02   1.807144E+04   5.971197E+00   6.653680E+00
 21  15   1.422474E+01   4.845395E+02   1.807146E+04   5.971200E+00   6.653682E+00
 21  16   1.422474E+01   4.845395E+02   1.807147E+04   5.971200E+00   6.653682E+00
 21  17   1.422476E+01   4.845392E+02   1.807144E+04   5.971196E+00   6.653679E+00
 21  18   1.422475E+01   4.845391E+02   1.807144E+04   5.971196E+00   6.653679E+00
 21  19   1.193870E+01   3.446020E+02   1.098084E+04   5.508180E+00   6.352163E+00
 21  20   1.193869E+01   3.446022E+02   1.098086E+04   5.508185E+00   6.352166E+00
 21  21   1.193868E+01   3.446022E+02   1.098087E+04   5.508185E+00   6.352167E+00
 22   1   5.368003E+00   1.472598E+02   5.095304E+03   5.556825E+00   6.383841E+00
 22   2   5.368091E+00   1.472608E+02   5.095296E+03   5.556801E+00   6.383825E+00
 22   3   5.368008E+00   1.472599E+02   5.095304E+03   5.556824E+00   6.383840E+00
 22   4   5.367902E+00   1.472585E+02   5.095304E+03   5.556852E+00   6.383858E+00
 22   5   5.368024E+00   1.472601E+02   5.095305E+03   5.556820E+00   6.383838E+00
 22   6   5.368022E+00   1.472601E+02   5.095305E+03   5.556821E+00   6.383838E+00
 22   7   5.367991E+00   1.472597E+02   5.095306E+03   5.556829E+00   6.383843E+00
 22   8   5.367993E+00   1.472598E+02   5.095306E+03   5.556828E+00   6.383843E+00
 22   9   5.367914E+00   1.472587E+02   5.095303E+03   5.556848E+00   6.383856E+00
 22  10   5.368074E+00   1.472606E+02   5.095295E+03   5.556805E+00   6.383827E+00
 22  11   5.368071E+00   1.472605E+02   5.095294E+03   5.556805E+00   6.383828E+00
 22  12   5.367915E+00   1.472587E+02   5.095302E+03   5.556847E+00   6.383855E+00
 22  13   1.422475E+01   4.845394E+02   1.807145E+04   5.971199E+00   6.653681E+00
 22  14   1.422476E+01   4.845392E+02   1.807144E+04   5.971196E+00   6.653679E+00
 22  15   1.422475E+01   4.845395E+02   1.807146E+04   5.971199E+00   6.653681E+00
 22  16   1.422475E+01   4.845395E+02   1.807146E+04   5.971199E+00   6.653681E+00
 22  17   1.422476E+01   4.845392E+02   1.807143E+04   5.971195E+00   6.653679E+00
 22  18   1.422476E+01   4.845391E+02   1.807143E+04   5.971195E+00   6.653679E+00
 22  19   1.193871E+01   3.446020E+02   1.098084E+04   5.508179E+00   6.352162E+00
 22  20   1.193869E+01   3.446022E+02   1.098086E+04   5.508183E+00   6.352165E+00
 22  21   1.193869E+01   3.446022E+02   1.098086E+04   5.508184E+00   6.352166E+00
 22  22   1.193870E+01   3.446022E+02   1.098086E+04   5.508183E+00   6.352165E+00
 
+ van der Waals energies, forces and stresses (Ry,bohr)
  Evdw(total,Ry)   =  -1.333579401886E-01
  Evdw(C6,Ry)      =  -6.508665772838E-02
  Evdw(C8,Ry)      =  -3.815581795774E-02
  Evdw(C10,Ry)     =  -3.011546450246E-02
  Fvdw (001,Ry/bohr) =   1.227569939657E-05  -7.356231268862E-05   2.242825531893E-05
  Fvdw (002,Ry/bohr) =   4.890088303325E-05   3.030802688535E-05   5.249448527723E-05
  Fvdw (003,Ry/bohr) =   1.227619880461E-05   5.620424101835E-05  -5.249331211631E-05
  Fvdw (004,Ry/bohr) =  -7.344018259164E-05  -1.294945629148E-05  -2.242806187178E-05
  Fvdw (005,Ry/bohr) =   4.889780493013E-05   3.030911221505E-05  -5.249473609357E-05
  Fvdw (006,Ry/bohr) =   4.889762973805E-05  -6.061617333497E-05   1.689085116315E-09
  Fvdw (007,Ry/bohr) =  -7.344707257195E-05  -1.294681322865E-05   2.242760948411E-05
  Fvdw (008,Ry/bohr) =  -7.344722862966E-05   2.589585884394E-05   1.718193591667E-09
  Fvdw (009,Ry/bohr) =   1.227104066767E-05  -7.355677365508E-05  -2.242858449269E-05
  Fvdw (010,Ry/bohr) =   1.227424818511E-05   5.620668621766E-05   5.249324023482E-05
  Fvdw (011,Ry/bohr) =   1.227381925405E-05   1.735724866584E-05   7.492260212374E-05
  Fvdw (012,Ry/bohr) =   1.227121194119E-05   1.735348187335E-05  -7.491644120708E-05
  Fvdw (013,Ry/bohr) =  -2.667023064157E-04   1.886021996810E-04   3.266638272859E-04
  Fvdw (014,Ry/bohr) =   2.666886649574E-04  -1.886052880198E-04  -3.266694605097E-04
  Fvdw (015,Ry/bohr) =   2.667123990328E-04  -1.885861466082E-04   3.266652574445E-04
  Fvdw (016,Ry/bohr) =   2.667127551107E-04   3.771946400988E-04   8.966354007204E-09
  Fvdw (017,Ry/bohr) =  -2.667117346054E-04   1.885730061307E-04  -3.266672998294E-04
  Fvdw (018,Ry/bohr) =  -2.667118990945E-04  -3.771891329638E-04  -2.155592788720E-08
  Fvdw (019,Ry/bohr) =   1.022988036372E-04   1.446712900117E-04   2.505747706696E-04
  Fvdw (020,Ry/bohr) =   1.022954480325E-04  -2.893311963194E-04   2.383361768055E-09
  Fvdw (021,Ry/bohr) =  -3.068807814864E-04   2.233923542046E-09   2.390649123112E-09
  Fvdw (022,Ry/bohr) =   1.022945986740E-04   1.446652675448E-04  -2.505677434340E-04
  sigma_vdw (Ry/bohr**3) =  -1.166118284144E-04  -4.755664759907E-11  -8.656752766756E-11  
                            -4.755664759907E-11  -1.166119144764E-04  -1.210036629281E-10  
                            -8.656752766756E-11  -1.210036629281E-10  -1.166120442247E-04  
  sigma_vdw (GPa) =  -1.715418931811E+00  -6.995823214005E-07  -1.273452083379E-06  
                     -6.995823214005E-07  -1.715420197827E+00  -1.780025037148E-06  
                     -1.273452083379E-06  -1.780025037148E-06  -1.715422106490E+00  
 

!    total energy              =    -238.63218728 Ry
     Harris-Foulkes estimate   =    -238.63218728 Ry
     estimated scf accuracy    <          4.4E-10 Ry

     total all-electron energy =      -910.387335 Ry

     The total energy is the sum of the following terms:

     one-electron contribution =    -137.39671327 Ry
     hartree contribution      =      91.14745062 Ry
     xc contribution           =     -55.74907240 Ry
     ewald contribution        =     -62.82894240 Ry
     Dispersion XDM Correction =      -0.13335794 Ry
     one-center paw contrib.   =     -73.67155189 Ry

     convergence has been achieved in  25 iterations

     Forces acting on atoms (Ry/au):

     atom    1 type  1   force =     0.00003220   -0.00004618   -0.00002341
     atom    2 type  1   force =    -0.00006760    0.00002658    0.00004607
     atom    3 type  1   force =     0.00003288    0.00000060   -0.00005158
     atom    4 type  1   force =    -0.00008230   -0.00001508   -0.00002579
     atom    5 type  1   force =    -0.00002042    0.00003074   -0.00005055
     atom    6 type  1   force =    -0.00001951   -0.00005952    0.00000139
     atom    7 type  1   force =    -0.00005778    0.00001120   -0.00001711
     atom    8 type  1   force =    -0.00005739   -0.00002178    0.00000129
     atom    9 type  1   force =     0.00001571   -0.00007821   -0.00001936
     atom   10 type  1   force =     0.00004483   -0.00004479    0.00004714
     atom   11 type  1   force =     0.00004448    0.00006282   -0.00001388
     atom   12 type  1   force =     0.00001616    0.00002291   -0.00007704
     atom   13 type  2   force =    -0.00000276    0.00001783    0.00002240
     atom   14 type  2   force =     0.00014199    0.00003732    0.00006479
     atom   15 type  2   force =     0.00003720    0.00000823    0.00000952
     atom   16 type  2   force =     0.00003357    0.00000587    0.00001236
     atom   17 type  2   force =    -0.00000844    0.00012463    0.00005334
     atom   18 type  2   force =    -0.00000814   -0.00001580    0.00013022
     atom   19 type  3   force =    -0.00001143   -0.00000220   -0.00000173
     atom   20 type  3   force =    -0.00003899    0.00000330   -0.00004503
     atom   21 type  3   force =     0.00001542   -0.00002589   -0.00004485
     atom   22 type  3   force =    -0.00003970   -0.00004257   -0.00001818

     Total force =     0.000373     Total SCF correction =     0.000037


     entering subroutine stress ...

          total   stress  (Ry/bohr**3)                   (kbar)     P=   -0.02
  -0.00000028   0.00000008   0.00000012         -0.04      0.01      0.02
   0.00000008  -0.00000014   0.00000016          0.01     -0.02      0.02
   0.00000012   0.00000016   0.00000006          0.02      0.02      0.01


     Writing output data file crystal.save
 
     init_run     :     83.64s CPU     83.88s WALL (       2 calls)
     electrons    :   5600.80s CPU   5612.21s WALL (       5 calls)
     update_pot   :     45.89s CPU     45.91s WALL (       3 calls)
     forces       :     57.42s CPU     57.99s WALL (       5 calls)
     stress       :    100.04s CPU    100.86s WALL (       5 calls)

     Called by init_run:
     wfcinit      :     60.93s CPU     61.00s WALL (       2 calls)
     potinit      :     10.82s CPU     10.84s WALL (       2 calls)

     Called by electrons:
     c_bands      :   3223.88s CPU   3226.30s WALL (      61 calls)
     sum_band     :   2211.73s CPU   2216.98s WALL (      61 calls)
     v_of_rho     :     32.60s CPU     32.63s WALL (      63 calls)
     newd         :     22.88s CPU     26.62s WALL (      63 calls)
     PAW_pot      :     12.87s CPU     12.95s WALL (      66 calls)
     mix_rho      :     12.19s CPU     12.19s WALL (      61 calls)

     Called by c_bands:
     init_us_2    :     15.86s CPU     15.90s WALL (    4384 calls)
     cegterg      :   3190.26s CPU   3192.44s WALL (    1952 calls)

     Called by sum_band:
     sum_band:bec :      0.10s CPU      0.09s WALL (    2048 calls)
     addusdens    :     26.62s CPU     30.11s WALL (      61 calls)

     Called by *egterg:
     h_psi        :   3028.35s CPU   3030.40s WALL (    8113 calls)
     s_psi        :     51.61s CPU     51.66s WALL (    8113 calls)
     g_psi        :      6.68s CPU      6.75s WALL (    6097 calls)
     cdiaghg      :     15.74s CPU     15.65s WALL (    7857 calls)

     Called by h_psi:
     add_vuspsi   :     52.32s CPU     52.37s WALL (    8113 calls)

     General routines
     calbec       :     81.62s CPU     81.61s WALL (   10961 calls)
     fft          :     58.44s CPU     58.46s WALL (    1437 calls)
     ffts         :      1.66s CPU      1.66s WALL (     185 calls)
     fftw         :   4136.57s CPU   4138.59s WALL (  565286 calls)
     interpolate  :     10.15s CPU     10.17s WALL (     185 calls)
     davcio       :      0.00s CPU      0.07s WALL (      64 calls)
 
     Parallel routines
     fft_scatter  :    336.31s CPU    336.21s WALL (  566908 calls)
 
     PWSCF        :     1h38m CPU        1h38m WALL

 
   This run was terminated on:  20:37:25  12May2016            

=------------------------------------------------------------------------------=
   JOB DONE.
=------------------------------------------------------------------------------=
