
     Program PWSCF v.5.3.0 (svn rev. 11974) starts on 13May2016 at  1:37:14 

     This program is part of the open-source Quantum ESPRESSO suite
     for quantum simulation of materials; please cite
         "P. Giannozzi et al., J. Phys.:Condens. Matter 21 395502 (2009);
          URL http://www.quantum-espresso.org", 
     in publications or presentations arising from this work. More details at
     http://www.quantum-espresso.org/quote

     Parallel version (MPI), running on     4 processors
     R & G space division:  proc/nbgrp/npool/nimage =       4
     Waiting for input...
     Reading input from standard input
     Message from routine read_cards :
     DEPRECATED: no units specified in CELL_PARAMETERS card

     Current dimensions of program PWSCF are:
     Max number of different atomic species (ntypx) = 10
     Max number of k-points (npk) =  40000
     Max angular momentum in pseudopotentials (lmaxx) =  3
     Message from routine iosys:
     xdm is obsolete, use "vdw_corr='xdm'" instead
               file h.UPF: wavefunction(s)  1S renormalized
               file c.UPF: wavefunction(s)  2P renormalized
               file o.UPF: wavefunction(s)  2P renormalized

     Subspace diagonalization in iterative solution of the eigenvalue problem:
     a serial algorithm will be used

 
     Parallelization info
     --------------------
     sticks:   dense  smooth     PW     G-vecs:    dense   smooth      PW
     Min        2711    1085    294               155007    39196    5531
     Max        2712    1086    295               155008    39224    5532
     Sum       10845    4343   1179               620029   156847   22125
 

     Title: 
     crystal                                                                    


     bravais-lattice index     =            0
     lattice parameter (alat)  =       1.0000  a.u.
     unit-cell volume          =    1622.8457 (a.u.)^3
     number of atoms/cell      =           28
     number of atomic types    =            3
     number of electrons       =        92.00
     number of Kohn-Sham states=           46
     kinetic-energy cutoff     =      80.0000  Ry
     charge density cutoff     =     800.0000  Ry
     convergence threshold     =      1.0E-08
     mixing beta               =       0.7000
     number of iterations used =            8  plain     mixing
     Exchange-correlation      =  SLA  PW   B86B PBC ( 1  4 22  4 0 0)
     nstep                     =           50


     celldm(1)=   1.000000  celldm(2)=   0.000000  celldm(3)=   0.000000
     celldm(4)=   0.000000  celldm(5)=   0.000000  celldm(6)=   0.000000

     crystal axes: (cart. coord. in units of alat)
               a(1) = (  10.441425   0.000000  -0.005873 )  
               a(2) = (   0.000000  16.317829   0.000000 )  
               a(3) = (  -0.250725   0.000000   9.524923 )  

     reciprocal axes: (cart. coord. in units 2 pi/alat)
               b(1) = (  0.095774  0.000000  0.002521 )  
               b(2) = (  0.000000  0.061283  0.000000 )  
               b(3) = (  0.000059  0.000000  0.104989 )  


     PseudoPot. # 1 for  H read from file:
     ./h.UPF
     MD5 check sum: a05c38eace8e4bf5ff015d364fdf499b
     Pseudo is Projector augmented-wave, Zval =  1.0
     Generated using "atomic" code by A. Dal Corso  v.5.0.2 svn rev. 10467M
     Shape of augmentation charge: PSQ
     Using radial grid of  929 points,  2 beta functions with: 
                l(1) =   0
                l(2) =   0
     Q(r) pseudized with 0 coefficients 


     PseudoPot. # 2 for  C read from file:
     ./c.UPF
     MD5 check sum: d23c832541b58f97580b3287d177e92c
     Pseudo is Projector augmented-wave + core cor, Zval =  4.0
     Generated using "atomic" code by A. Dal Corso  v.5.0.2 svn rev. 10467M
     Shape of augmentation charge: BESSEL
     Using radial grid of 1073 points,  4 beta functions with: 
                l(1) =   0
                l(2) =   0
                l(3) =   1
                l(4) =   1
     Q(r) pseudized with 0 coefficients 


     PseudoPot. # 3 for  O read from file:
     ./o.UPF
     MD5 check sum: e5d0ebeb85377a04d0834d2ed76ab915
     Pseudo is Projector augmented-wave + core cor, Zval =  6.0
     Generated using "atomic" code by A. Dal Corso  v.5.0.2 svn rev. 10467M
     Shape of augmentation charge: BESSEL
     Using radial grid of 1095 points,  4 beta functions with: 
                l(1) =   0
                l(2) =   0
                l(3) =   1
                l(4) =   1
     Q(r) pseudized with 0 coefficients 


     atomic species   valence    mass     pseudopotential
        h              1.00     1.00794      H( 1.00)
        c              4.00    12.01070      C( 1.00)
        o              6.00    15.99940      O( 1.00)

      4 Sym. Ops., with inversion, found ( 2 have fractional translation)



   Cartesian axes

     site n.     atom                  positions (alat units)
         1           h   tau(   1) = (   9.9849474  13.5532356   8.6075240  )
         2           h   tau(   2) = (   0.2057535   2.7645930   0.9115268  )
         3           h   tau(   3) = (   0.0803912   5.3943213   5.6739885  )
         4           h   tau(   4) = (  10.1103096  10.9235072   3.8450623  )
         5           h   tau(   5) = (   1.8746915  14.5908832   1.4309295  )
         6           h   tau(   6) = (   8.3160093   1.7269453   8.0881214  )
         7           h   tau(   7) = (   8.4413716   6.4319690   3.3256597  )
         8           h   tau(   8) = (   1.7493292   9.8858596   6.1933912  )
         9           h   tau(   9) = (   5.6205497  14.4403702   5.7195435  )
        10           h   tau(  10) = (   4.5701512   1.8774584   3.7995074  )
        11           h   tau(  11) = (   4.4447889   6.2814559   8.5619691  )
        12           h   tau(  12) = (   5.7459120  10.0363726   0.9570818  )
        13           c   tau(  13) = (   0.6222421  15.2130977   9.2544436  )
        14           c   tau(  14) = (   9.5684587   1.1047309   0.2646073  )
        15           c   tau(  15) = (   9.4430964   7.0541834   5.0270689  )
        16           c   tau(  16) = (   0.7476044   9.2636451   4.4919819  )
        17           c   tau(  17) = (   2.5543868  15.7732428   7.2514213  )
        18           c   tau(  18) = (   7.6363140   0.5445857   2.2676296  )
        19           c   tau(  19) = (   7.5109517   7.6143285   7.0300912  )
        20           c   tau(  20) = (   2.6797491   8.7035000   2.4889596  )
        21           o   tau(  21) = (   2.4376780   1.3119856   5.8281936  )
        22           o   tau(  22) = (   7.7530228  15.0058430   3.6908573  )
        23           o   tau(  23) = (   7.6276605   9.4708998   8.4533190  )
        24           o   tau(  24) = (   2.5630403   6.8469287   1.0657319  )
        25           o   tau(  25) = (   4.3683217  14.0598025   7.1456200  )
        26           o   tau(  26) = (   5.8223792   2.2580260   2.3734309  )
        27           o   tau(  27) = (   5.6970169   5.9008883   7.1358926  )
        28           o   tau(  28) = (   4.4936840  10.4169403   2.3831583  )

     number of k points=    16
                       cart. coord. in units 2pi/alat
        k(    1) = (   0.0119791   0.0076603   0.0134388), wk =   0.1250000
        k(    2) = (   0.0119939   0.0076603   0.0396861), wk =   0.1250000
        k(    3) = (   0.0119496   0.0076603  -0.0390558), wk =   0.1250000
        k(    4) = (   0.0119643   0.0076603  -0.0128085), wk =   0.1250000
        k(    5) = (   0.0119791   0.0229810   0.0134388), wk =   0.1250000
        k(    6) = (   0.0119939   0.0229810   0.0396861), wk =   0.1250000
        k(    7) = (   0.0119496   0.0229810  -0.0390558), wk =   0.1250000
        k(    8) = (   0.0119643   0.0229810  -0.0128085), wk =   0.1250000
        k(    9) = (   0.0359225   0.0076603   0.0140691), wk =   0.1250000
        k(   10) = (   0.0359373   0.0076603   0.0403164), wk =   0.1250000
        k(   11) = (   0.0358930   0.0076603  -0.0384256), wk =   0.1250000
        k(   12) = (   0.0359078   0.0076603  -0.0121783), wk =   0.1250000
        k(   13) = (   0.0359225   0.0229810   0.0140691), wk =   0.1250000
        k(   14) = (   0.0359373   0.0229810   0.0403164), wk =   0.1250000
        k(   15) = (   0.0358930   0.0229810  -0.0384256), wk =   0.1250000
        k(   16) = (   0.0359078   0.0229810  -0.0121783), wk =   0.1250000

     Dense  grid:   620029 G-vectors     FFT dimensions: (  96, 150,  90)

     Smooth grid:   156847 G-vectors     FFT dimensions: (  60,  96,  60)

     Largest allocated arrays     est. size (Mb)     dimensions
        Kohn-Sham Wavefunctions         3.46 Mb     (    4925,   46)
        NL pseudopotentials            11.42 Mb     (    4925,  152)
        Each V/rho on FFT grid          5.05 Mb     (  331200)
        Each G-vector array             1.18 Mb     (  155008)
        G-vector shells                 1.18 Mb     (  155008)
     Largest temporary arrays     est. size (Mb)     dimensions
        Auxiliary wavefunctions        13.83 Mb     (    4925,  184)
        Each subspace H/S matrix        0.52 Mb     (     184,  184)
        Each <psi_i|beta_j> matrix      0.11 Mb     (     152,   46)
        Arrays for rho mixing          40.43 Mb     (  331200,    8)

     Initial potential from superposition of free atoms

     starting charge   91.99955, renormalised to   92.00000
     Starting wfc are   76 randomized atomic wfcs
     Checking if some PAW data can be deallocated... 

     total cpu time spent up to now is       35.1 secs

     per-process dynamical memory:   171.5 Mb

     Self-consistent Calculation

     iteration #  1     ecut=    80.00 Ry     beta=0.70
     Davidson diagonalization with overlap
     ethr =  1.00E-02,  avg # of iterations =  3.0

     total cpu time spent up to now is      110.8 secs

     total energy              =    -495.76647548 Ry
     Harris-Foulkes estimate   =    -497.72670378 Ry
     estimated scf accuracy    <       2.94666653 Ry

     iteration #  2     ecut=    80.00 Ry     beta=0.70
     Davidson diagonalization with overlap
     ethr =  3.20E-03,  avg # of iterations =  4.1

     total cpu time spent up to now is      190.7 secs

     total energy              =    -496.36251457 Ry
     Harris-Foulkes estimate   =    -497.36001218 Ry
     estimated scf accuracy    <       1.84354141 Ry

     iteration #  3     ecut=    80.00 Ry     beta=0.70
     Davidson diagonalization with overlap
     ethr =  2.00E-03,  avg # of iterations =  4.4

     total cpu time spent up to now is      250.8 secs

     total energy              =    -496.65357661 Ry
     Harris-Foulkes estimate   =    -496.71938639 Ry
     estimated scf accuracy    <       0.11240790 Ry

     iteration #  4     ecut=    80.00 Ry     beta=0.70
     Davidson diagonalization with overlap
     ethr =  1.22E-04,  avg # of iterations =  4.0

     total cpu time spent up to now is      334.9 secs

     total energy              =    -496.78839413 Ry
     Harris-Foulkes estimate   =    -496.83132436 Ry
     estimated scf accuracy    <       0.11166839 Ry

     iteration #  5     ecut=    80.00 Ry     beta=0.70
     Davidson diagonalization with overlap
     ethr =  1.21E-04,  avg # of iterations =  2.0

     total cpu time spent up to now is      388.7 secs

     total energy              =    -496.78130320 Ry
     Harris-Foulkes estimate   =    -496.79483179 Ry
     estimated scf accuracy    <       0.03760799 Ry

     iteration #  6     ecut=    80.00 Ry     beta=0.70
     Davidson diagonalization with overlap
     ethr =  4.09E-05,  avg # of iterations =  3.7

     total cpu time spent up to now is      459.3 secs

     total energy              =    -496.79746281 Ry
     Harris-Foulkes estimate   =    -496.79849356 Ry
     estimated scf accuracy    <       0.00314357 Ry

     iteration #  7     ecut=    80.00 Ry     beta=0.70
     Davidson diagonalization with overlap
     ethr =  3.42E-06,  avg # of iterations =  3.8

     total cpu time spent up to now is      520.9 secs

     total energy              =    -496.79731674 Ry
     Harris-Foulkes estimate   =    -496.79815137 Ry
     estimated scf accuracy    <       0.00161861 Ry

     iteration #  8     ecut=    80.00 Ry     beta=0.70
     Davidson diagonalization with overlap
     ethr =  1.76E-06,  avg # of iterations =  4.0

     total cpu time spent up to now is      584.4 secs

     total energy              =    -496.79765339 Ry
     Harris-Foulkes estimate   =    -496.79775431 Ry
     estimated scf accuracy    <       0.00019646 Ry

     iteration #  9     ecut=    80.00 Ry     beta=0.70
     Davidson diagonalization with overlap
     ethr =  2.14E-07,  avg # of iterations =  4.0

     total cpu time spent up to now is      659.7 secs

     total energy              =    -496.79774507 Ry
     Harris-Foulkes estimate   =    -496.79774938 Ry
     estimated scf accuracy    <       0.00001570 Ry

     iteration # 10     ecut=    80.00 Ry     beta=0.70
     Davidson diagonalization with overlap
     ethr =  1.71E-08,  avg # of iterations =  2.2

     total cpu time spent up to now is      713.0 secs

     total energy              =    -496.79774224 Ry
     Harris-Foulkes estimate   =    -496.79774592 Ry
     estimated scf accuracy    <       0.00000779 Ry

     iteration # 11     ecut=    80.00 Ry     beta=0.70
     Davidson diagonalization with overlap
     ethr =  8.46E-09,  avg # of iterations =  4.0

     total cpu time spent up to now is      784.7 secs

     total energy              =    -496.79774533 Ry
     Harris-Foulkes estimate   =    -496.79774583 Ry
     estimated scf accuracy    <       0.00000257 Ry

     iteration # 12     ecut=    80.00 Ry     beta=0.70
     Davidson diagonalization with overlap
     ethr =  2.80E-09,  avg # of iterations =  1.0

     total cpu time spent up to now is      836.4 secs

     total energy              =    -496.79774485 Ry
     Harris-Foulkes estimate   =    -496.79774538 Ry
     estimated scf accuracy    <       0.00000157 Ry

     iteration # 13     ecut=    80.00 Ry     beta=0.70
     Davidson diagonalization with overlap
     ethr =  1.71E-09,  avg # of iterations =  5.0

     total cpu time spent up to now is      897.6 secs

     total energy              =    -496.79774525 Ry
     Harris-Foulkes estimate   =    -496.79774523 Ry
     estimated scf accuracy    <       0.00000002 Ry

     iteration # 14     ecut=    80.00 Ry     beta=0.70
     Davidson diagonalization with overlap
     ethr =  2.06E-11,  avg # of iterations =  4.7

     total cpu time spent up to now is      988.0 secs

     total energy              =    -496.79774528 Ry
     Harris-Foulkes estimate   =    -496.79774530 Ry
     estimated scf accuracy    <       0.00000020 Ry

     iteration # 15     ecut=    80.00 Ry     beta=0.70
     Davidson diagonalization with overlap
     ethr =  2.06E-11,  avg # of iterations =  1.0

     total cpu time spent up to now is     1039.7 secs

     total energy              =    -496.79774522 Ry
     Harris-Foulkes estimate   =    -496.79774528 Ry
     estimated scf accuracy    <       0.00000017 Ry

     iteration # 16     ecut=    80.00 Ry     beta=0.70
     Davidson diagonalization with overlap
     ethr =  2.06E-11,  avg # of iterations =  5.0

     total cpu time spent up to now is     1124.6 secs

     End of self-consistent calculation

          k = 0.0120 0.0077 0.0134 ( 19609 PWs)   bands (ev):

   -20.9473 -20.8827 -20.5126 -20.4996 -18.6518 -18.5706 -18.2461 -18.2438
   -13.0365 -12.9945 -10.5140 -10.4321  -8.7732  -8.6252  -7.3396  -7.1869
    -6.2772  -6.2437  -5.2165  -5.0490  -4.9294  -4.9064  -4.7636  -4.5886
    -4.5035  -4.3681  -4.3115  -4.2723  -3.2427  -3.1570  -2.4727  -2.3959
    -2.2289  -2.1831  -2.0714  -1.7804  -1.5296  -1.4854  -0.9753  -0.9261
    -0.6448  -0.5642  -0.0639   0.0810   0.2538   0.3344

          k = 0.0120 0.0077 0.0397 ( 19608 PWs)   bands (ev):

   -20.8923 -20.8613 -20.5444 -20.5433 -18.6256 -18.5890 -18.2496 -18.2451
   -12.9950 -12.9737 -10.7038 -10.6955  -8.5251  -8.4099  -7.3721  -7.2295
    -6.1744  -6.0610  -5.2811  -5.2627  -5.1495  -5.0430  -4.7349  -4.6605
    -4.4350  -4.3831  -4.1872  -4.1268  -3.0298  -2.8818  -2.7849  -2.7600
    -2.3768  -2.3169  -1.7755  -1.6898  -1.4332  -1.3851  -0.9235  -0.8992
    -0.5532  -0.5181  -0.0955   0.0409   0.2504   0.3423

          k = 0.0119 0.0077-0.0391 ( 19594 PWs)   bands (ev):

   -20.8836 -20.8550 -20.5546 -20.5509 -18.6253 -18.5953 -18.2468 -18.2433
   -12.9130 -12.8982 -10.9358 -10.8920  -8.2388  -8.2304  -7.4543  -7.3878
    -5.8864  -5.8193  -5.5506  -5.5248  -5.1667  -5.1396  -4.6460  -4.5588
    -4.3914  -4.3255  -4.0292  -4.0089  -3.1873  -3.1457  -2.8110  -2.7818
    -2.4426  -2.3982  -1.7254  -1.6394  -1.4300  -1.3678  -0.9414  -0.8974
    -0.5602  -0.5482   0.0937   0.1250   0.1901   0.2515

          k = 0.0120 0.0077-0.0128 ( 19627 PWs)   bands (ev):

   -20.9413 -20.8767 -20.5200 -20.5070 -18.6533 -18.5750 -18.2433 -18.2420
   -12.9636 -12.9219 -10.7568 -10.6719  -8.5270  -8.4144  -7.3973  -7.2012
    -6.1933  -6.1496  -5.3646  -5.2546  -4.9639  -4.8938  -4.7632  -4.6283
    -4.3494  -4.2604  -4.2251  -4.1358  -3.1472  -3.0694  -2.7964  -2.7463
    -2.3850  -2.2783  -1.8556  -1.6665  -1.5228  -1.4484  -0.9889  -0.9275
    -0.6600  -0.5822  -0.0288   0.1146   0.2779   0.3436

          k = 0.0120 0.0230 0.0134 ( 19617 PWs)   bands (ev):

   -20.9293 -20.9026 -20.5081 -20.5027 -18.6281 -18.5945 -18.2452 -18.2442
   -13.0244 -13.0070 -10.4898 -10.4558  -8.7314  -8.6702  -7.2949  -7.2317
    -6.2737  -6.2594  -5.1774  -5.1158  -4.8869  -4.8510  -4.7457  -4.6624
    -4.4476  -4.3847  -4.3022  -4.2916  -3.2572  -3.2129  -2.4655  -2.4354
    -2.2173  -2.1963  -1.9767  -1.8451  -1.5007  -1.4573  -0.9698  -0.9395
    -0.5983  -0.5608  -0.0534   0.0116   0.2799   0.3170

          k = 0.0120 0.0230 0.0397 ( 19577 PWs)   bands (ev):

   -20.8831 -20.8703 -20.5445 -20.5438 -18.6138 -18.5986 -18.2492 -18.2473
   -12.9886 -12.9798 -10.7018 -10.6984  -8.4914  -8.4437  -7.3301  -7.2705
    -6.1431  -6.0964  -5.2775  -5.2464  -5.1692  -5.0889  -4.7019  -4.6488
    -4.4213  -4.3698  -4.1889  -4.1351  -2.9944  -2.9317  -2.7698  -2.7645
    -2.3878  -2.3550  -1.7288  -1.6510  -1.4258  -1.3812  -0.9954  -0.9733
    -0.5234  -0.5065  -0.0324   0.0338   0.2791   0.3207

          k = 0.0119 0.0230-0.0391 ( 19587 PWs)   bands (ev):

   -20.8751 -20.8632 -20.5540 -20.5524 -18.6153 -18.6029 -18.2468 -18.2453
   -12.9086 -12.9024 -10.9232 -10.9051  -8.2381  -8.2347  -7.4277  -7.3998
    -5.8779  -5.8481  -5.5478  -5.5222  -5.1828  -5.1629  -4.6070  -4.5682
    -4.3745  -4.3404  -4.0004  -3.9828  -3.2088  -3.1844  -2.7991  -2.7694
    -2.4528  -2.4329  -1.6826  -1.6055  -1.4254  -1.3420  -1.0188  -0.9656
    -0.5397  -0.5315   0.1149   0.1467   0.2075   0.2466

          k = 0.0120 0.0230-0.0128 ( 19613 PWs)   bands (ev):

   -20.9233 -20.8966 -20.5154 -20.5101 -18.6303 -18.5979 -18.2429 -18.2422
   -12.9516 -12.9344 -10.7315 -10.6963  -8.4952  -8.4486  -7.3452  -7.2645
    -6.1789  -6.1602  -5.3005  -5.2471  -4.9955  -4.9282  -4.7436  -4.6681
    -4.3208  -4.2876  -4.1778  -4.1300  -3.1610  -3.1182  -2.8174  -2.7860
    -2.3345  -2.2833  -1.7847  -1.6900  -1.5106  -1.4444  -0.9914  -0.9371
    -0.6207  -0.5835  -0.0187   0.0472   0.3057   0.3358

          k = 0.0359 0.0077 0.0141 ( 19625 PWs)   bands (ev):

   -20.9211 -20.8600 -20.5372 -20.5205 -18.6777 -18.5980 -18.2212 -18.2209
   -13.0013 -12.9606 -10.7495 -10.6390  -8.4347  -8.3800  -7.3242  -7.1853
    -6.2071  -6.1660  -5.4446  -5.2940  -5.2625  -5.1521  -4.6408  -4.5804
    -4.2919  -4.2386  -4.1193  -3.9849  -3.0403  -3.0372  -2.7832  -2.7340
    -2.3355  -2.2610  -2.0426  -1.7596  -1.4848  -1.3203  -0.8732  -0.8641
    -0.7248  -0.6657  -0.0888   0.1119   0.3180   0.3358

          k = 0.0359 0.0077 0.0403 ( 19610 PWs)   bands (ev):

   -20.8820 -20.8540 -20.5492 -20.5450 -18.6460 -18.6101 -18.2307 -18.2273
   -13.0980 -13.0796 -10.4681 -10.4353  -8.6495  -8.5784  -7.2597  -7.1970
    -6.2418  -6.2296  -5.5503  -5.5174  -5.0471  -4.9869  -4.8350  -4.7831
    -4.3635  -4.3268  -3.9774  -3.9396  -2.9419  -2.8664  -2.4319  -2.3900
    -2.2824  -2.2334  -2.1026  -1.9265  -1.3855  -1.3497  -0.8846  -0.8777
    -0.6829  -0.6341  -0.1334  -0.0054   0.2707   0.3023

          k = 0.0359 0.0077-0.0384 ( 19606 PWs)   bands (ev):

   -20.8729 -20.8474 -20.5599 -20.5528 -18.6458 -18.6158 -18.2288 -18.2251
   -13.0283 -13.0157 -10.7131 -10.6427  -8.4222  -8.3774  -7.2588  -7.2481
    -6.2145  -6.0838  -5.5508  -5.5431  -5.2854  -5.2055  -4.7244  -4.6586
    -4.2551  -4.1642  -3.9959  -3.8486  -2.9078  -2.8115  -2.7912  -2.7291
    -2.3585  -2.2921  -1.9344  -1.7728  -1.3885  -1.3228  -0.9185  -0.8423
    -0.6931  -0.6794  -0.0776  -0.0047   0.2928   0.3306

          k = 0.0359 0.0077-0.0122 ( 19631 PWs)   bands (ev):

   -20.9142 -20.8531 -20.5455 -20.5288 -18.6790 -18.6017 -18.2207 -18.2177
   -12.9229 -12.8827 -10.9579 -10.8521  -8.1948  -8.1693  -7.4421  -7.2975
    -5.9510  -5.8444  -5.6818  -5.6084  -5.2261  -5.2046  -4.5906  -4.5509
    -4.2710  -4.1521  -4.0596  -3.9014  -3.1172  -3.0404  -2.9000  -2.8740
    -2.4103  -2.3029  -2.0302  -1.7837  -1.4223  -1.2933  -0.8828  -0.8220
    -0.7661  -0.7116   0.1271   0.1511   0.1850   0.3246

          k = 0.0359 0.0230 0.0141 ( 19633 PWs)   bands (ev):

   -20.9042 -20.8789 -20.5315 -20.5247 -18.6543 -18.6213 -18.2211 -18.2208
   -12.9895 -12.9727 -10.7164 -10.6706  -8.4198  -8.3972  -7.2886  -7.2316
    -6.2026  -6.1873  -5.3761  -5.3066  -5.2148  -5.1453  -4.6828  -4.6345
    -4.3042  -4.2664  -4.0566  -4.0054  -3.0680  -3.0608  -2.7723  -2.7375
    -2.3013  -2.2659  -1.9068  -1.6968  -1.5866  -1.4221  -0.8602  -0.8497
    -0.6952  -0.6591  -0.0489   0.0421   0.3127   0.3264

          k = 0.0359 0.0230 0.0403 ( 19619 PWs)   bands (ev):

   -20.8737 -20.8621 -20.5482 -20.5465 -18.6346 -18.6198 -18.2305 -18.2290
   -13.0924 -13.0847 -10.4586 -10.4451  -8.6284  -8.5989  -7.2442  -7.2182
    -6.2512  -6.2461  -5.5068  -5.4768  -5.0023  -4.9545  -4.9034  -4.8398
    -4.3739  -4.3581  -3.9696  -3.9542  -2.9056  -2.8652  -2.4151  -2.3990
    -2.2992  -2.2687  -1.9716  -1.8695  -1.4569  -1.4167  -0.9108  -0.9040
    -0.6737  -0.6449  -0.0560   0.0061   0.2601   0.2785

          k = 0.0359 0.0230-0.0384 ( 19615 PWs)   bands (ev):

   -20.8653 -20.8547 -20.5582 -20.5552 -18.6360 -18.6236 -18.2286 -18.2270
   -13.0244 -13.0191 -10.6928 -10.6637  -8.4091  -8.3905  -7.2572  -7.2512
    -6.1895  -6.1370  -5.5292  -5.5213  -5.2219  -5.1924  -4.7778  -4.7339
    -4.2370  -4.1845  -3.9528  -3.8900  -2.8774  -2.8198  -2.7627  -2.7355
    -2.3624  -2.3323  -1.7927  -1.6805  -1.4839  -1.4153  -0.9380  -0.8783
    -0.6933  -0.6821  -0.0190   0.0136   0.2923   0.3072

          k = 0.0359 0.0230-0.0122 ( 19608 PWs)   bands (ev):

   -20.8973 -20.8721 -20.5398 -20.5330 -18.6563 -18.6243 -18.2197 -18.2185
   -12.9113 -12.8947 -10.9261 -10.8823  -8.1892  -8.1787  -7.4040  -7.3446
    -5.9486  -5.9229  -5.5614  -5.5587  -5.2494  -5.2203  -4.6090  -4.5940
    -4.2407  -4.1840  -4.0162  -3.9501  -3.0941  -3.0531  -2.9309  -2.9102
    -2.3677  -2.3201  -1.8595  -1.6291  -1.6054  -1.4100  -0.8583  -0.8120
    -0.7433  -0.7162   0.1186   0.1330   0.2257   0.2778

     highest occupied level (ev):     0.3436

* XDM dispersion
  a1 =     0.651200
  a2 (ang) =     1.463300
  a2 (bohr) =     2.765236
 
+ Volumes and moments
# All results in atomic units (Hartree,bohr)
# i        V             Vfree           M1             M2             M3
  1   7.975159E+00   1.032844E+01   1.482484E+00   1.333452E+01   2.609576E+02
  2   7.975159E+00   1.032844E+01   1.482484E+00   1.333452E+01   2.609576E+02
  3   7.975159E+00   1.032844E+01   1.482484E+00   1.333452E+01   2.609576E+02
  4   7.975159E+00   1.032844E+01   1.482484E+00   1.333452E+01   2.609576E+02
  5   8.045076E+00   1.032844E+01   1.484962E+00   1.328563E+01   2.592645E+02
  6   8.045076E+00   1.032844E+01   1.484962E+00   1.328563E+01   2.592645E+02
  7   8.045076E+00   1.032844E+01   1.484962E+00   1.328563E+01   2.592645E+02
  8   8.045076E+00   1.032844E+01   1.484962E+00   1.328563E+01   2.592645E+02
  9   8.243053E+00   1.032844E+01   1.401137E+00   1.402834E+01   2.699975E+02
 10   8.243053E+00   1.032844E+01   1.401137E+00   1.402834E+01   2.699975E+02
 11   8.243053E+00   1.032844E+01   1.401137E+00   1.402834E+01   2.699975E+02
 12   8.243053E+00   1.032844E+01   1.401137E+00   1.402834E+01   2.699975E+02
 13   3.263413E+01   3.872712E+01   3.692709E+00   4.933365E+01   9.130285E+02
 14   3.263413E+01   3.872712E+01   3.692709E+00   4.933365E+01   9.130285E+02
 15   3.263413E+01   3.872712E+01   3.692709E+00   4.933365E+01   9.130285E+02
 16   3.263413E+01   3.872712E+01   3.692709E+00   4.933365E+01   9.130285E+02
 17   3.249948E+01   3.872712E+01   3.639557E+00   4.906074E+01   9.270671E+02
 18   3.249948E+01   3.872712E+01   3.639557E+00   4.906074E+01   9.270671E+02
 19   3.249948E+01   3.872712E+01   3.639557E+00   4.906074E+01   9.270671E+02
 20   3.249948E+01   3.872712E+01   3.639557E+00   4.906074E+01   9.270671E+02
 21   2.115565E+01   2.369510E+01   4.422946E+00   3.251392E+01   3.256092E+02
 22   2.115565E+01   2.369510E+01   4.422946E+00   3.251392E+01   3.256092E+02
 23   2.115565E+01   2.369510E+01   4.422946E+00   3.251392E+01   3.256092E+02
 24   2.115565E+01   2.369510E+01   4.422946E+00   3.251392E+01   3.256092E+02
 25   2.088519E+01   2.369510E+01   4.272993E+00   3.195403E+01   3.271470E+02
 26   2.088519E+01   2.369510E+01   4.272993E+00   3.195403E+01   3.271470E+02
 27   2.088519E+01   2.369510E+01   4.272993E+00   3.195403E+01   3.271470E+02
 28   2.088519E+01   2.369510E+01   4.272993E+00   3.195403E+01   3.271470E+02
 
+ Dispersion coefficients
# All results in atomic units (Hartree,bohr).
# i   j      C6             C8             C10            Rc            Rvdw
  1   1   2.575472E+00   6.949691E+01   2.688561E+03   5.699530E+00   6.476770E+00
  2   1   2.575472E+00   6.949691E+01   2.688561E+03   5.699530E+00   6.476770E+00
  2   2   2.575472E+00   6.949691E+01   2.688561E+03   5.699530E+00   6.476770E+00
  3   1   2.575472E+00   6.949691E+01   2.688561E+03   5.699530E+00   6.476770E+00
  3   2   2.575472E+00   6.949691E+01   2.688561E+03   5.699530E+00   6.476770E+00
  3   3   2.575472E+00   6.949691E+01   2.688561E+03   5.699530E+00   6.476770E+00
  4   1   2.575472E+00   6.949691E+01   2.688561E+03   5.699530E+00   6.476770E+00
  4   2   2.575472E+00   6.949691E+01   2.688561E+03   5.699530E+00   6.476770E+00
  4   3   2.575472E+00   6.949691E+01   2.688561E+03   5.699530E+00   6.476770E+00
  4   4   2.575472E+00   6.949691E+01   2.688561E+03   5.699530E+00   6.476770E+00
  5   1   2.588883E+00   6.967262E+01   2.690446E+03   5.693205E+00   6.472651E+00
  5   2   2.588883E+00   6.967262E+01   2.690446E+03   5.693205E+00   6.472651E+00
  5   3   2.588883E+00   6.967262E+01   2.690446E+03   5.693205E+00   6.472651E+00
  5   4   2.588883E+00   6.967262E+01   2.690446E+03   5.693205E+00   6.472651E+00
  5   5   2.602395E+00   6.984914E+01   2.692338E+03   5.686871E+00   6.468527E+00
  6   1   2.588883E+00   6.967262E+01   2.690446E+03   5.693205E+00   6.472651E+00
  6   2   2.588883E+00   6.967262E+01   2.690446E+03   5.693205E+00   6.472651E+00
  6   3   2.588883E+00   6.967262E+01   2.690446E+03   5.693205E+00   6.472651E+00
  6   4   2.588883E+00   6.967262E+01   2.690446E+03   5.693205E+00   6.472651E+00
  6   5   2.602395E+00   6.984914E+01   2.692338E+03   5.686871E+00   6.468527E+00
  6   6   2.602395E+00   6.984914E+01   2.692338E+03   5.686871E+00   6.468527E+00
  7   1   2.588883E+00   6.967262E+01   2.690446E+03   5.693205E+00   6.472651E+00
  7   2   2.588883E+00   6.967262E+01   2.690446E+03   5.693205E+00   6.472651E+00
  7   3   2.588883E+00   6.967262E+01   2.690446E+03   5.693205E+00   6.472651E+00
  7   4   2.588883E+00   6.967262E+01   2.690446E+03   5.693205E+00   6.472651E+00
  7   5   2.602395E+00   6.984914E+01   2.692338E+03   5.686871E+00   6.468527E+00
  7   6   2.602395E+00   6.984914E+01   2.692338E+03   5.686871E+00   6.468527E+00
  7   7   2.602395E+00   6.984914E+01   2.692338E+03   5.686871E+00   6.468527E+00
  8   1   2.588883E+00   6.967262E+01   2.690446E+03   5.693205E+00   6.472651E+00
  8   2   2.588883E+00   6.967262E+01   2.690446E+03   5.693205E+00   6.472651E+00
  8   3   2.588883E+00   6.967262E+01   2.690446E+03   5.693205E+00   6.472651E+00
  8   4   2.588883E+00   6.967262E+01   2.690446E+03   5.693205E+00   6.472651E+00
  8   5   2.602395E+00   6.984914E+01   2.692338E+03   5.686871E+00   6.468527E+00
  8   6   2.602395E+00   6.984914E+01   2.692338E+03   5.686871E+00   6.468527E+00
  8   7   2.602395E+00   6.984914E+01   2.692338E+03   5.686871E+00   6.468527E+00
  8   8   2.602395E+00   6.984914E+01   2.692338E+03   5.686871E+00   6.468527E+00
  9   1   2.542976E+00   7.250083E+01   2.837167E+03   5.791521E+00   6.536675E+00
  9   2   2.542976E+00   7.250083E+01   2.837167E+03   5.791521E+00   6.536675E+00
  9   3   2.542976E+00   7.250083E+01   2.837167E+03   5.791521E+00   6.536675E+00
  9   4   2.542976E+00   7.250083E+01   2.837167E+03   5.791521E+00   6.536675E+00
  9   5   2.556620E+00   7.270600E+01   2.839904E+03   5.785224E+00   6.532574E+00
  9   6   2.556620E+00   7.270600E+01   2.839904E+03   5.785224E+00   6.532574E+00
  9   7   2.556620E+00   7.270600E+01   2.839904E+03   5.785224E+00   6.532574E+00
  9   8   2.556620E+00   7.270600E+01   2.839904E+03   5.785224E+00   6.532574E+00
  9   9   2.515918E+00   7.556892E+01   2.998504E+03   5.885090E+00   6.597607E+00
 10   1   2.542976E+00   7.250083E+01   2.837167E+03   5.791521E+00   6.536675E+00
 10   2   2.542976E+00   7.250083E+01   2.837167E+03   5.791521E+00   6.536675E+00
 10   3   2.542976E+00   7.250083E+01   2.837167E+03   5.791521E+00   6.536675E+00
 10   4   2.542976E+00   7.250083E+01   2.837167E+03   5.791521E+00   6.536675E+00
 10   5   2.556620E+00   7.270600E+01   2.839904E+03   5.785224E+00   6.532574E+00
 10   6   2.556620E+00   7.270600E+01   2.839904E+03   5.785224E+00   6.532574E+00
 10   7   2.556620E+00   7.270600E+01   2.839904E+03   5.785224E+00   6.532574E+00
 10   8   2.556620E+00   7.270600E+01   2.839904E+03   5.785224E+00   6.532574E+00
 10   9   2.515918E+00   7.556892E+01   2.998504E+03   5.885090E+00   6.597607E+00
 10  10   2.515918E+00   7.556892E+01   2.998504E+03   5.885090E+00   6.597607E+00
 11   1   2.542976E+00   7.250083E+01   2.837167E+03   5.791521E+00   6.536675E+00
 11   2   2.542976E+00   7.250083E+01   2.837167E+03   5.791521E+00   6.536675E+00
 11   3   2.542976E+00   7.250083E+01   2.837167E+03   5.791521E+00   6.536675E+00
 11   4   2.542976E+00   7.250083E+01   2.837167E+03   5.791521E+00   6.536675E+00
 11   5   2.556620E+00   7.270600E+01   2.839904E+03   5.785224E+00   6.532574E+00
 11   6   2.556620E+00   7.270600E+01   2.839904E+03   5.785224E+00   6.532574E+00
 11   7   2.556620E+00   7.270600E+01   2.839904E+03   5.785224E+00   6.532574E+00
 11   8   2.556620E+00   7.270600E+01   2.839904E+03   5.785224E+00   6.532574E+00
 11   9   2.515918E+00   7.556892E+01   2.998504E+03   5.885090E+00   6.597607E+00
 11  10   2.515918E+00   7.556892E+01   2.998504E+03   5.885090E+00   6.597607E+00
 11  11   2.515918E+00   7.556892E+01   2.998504E+03   5.885090E+00   6.597607E+00
 12   1   2.542976E+00   7.250083E+01   2.837167E+03   5.791521E+00   6.536675E+00
 12   2   2.542976E+00   7.250083E+01   2.837167E+03   5.791521E+00   6.536675E+00
 12   3   2.542976E+00   7.250083E+01   2.837167E+03   5.791521E+00   6.536675E+00
 12   4   2.542976E+00   7.250083E+01   2.837167E+03   5.791521E+00   6.536675E+00
 12   5   2.556620E+00   7.270600E+01   2.839904E+03   5.785224E+00   6.532574E+00
 12   6   2.556620E+00   7.270600E+01   2.839904E+03   5.785224E+00   6.532574E+00
 12   7   2.556620E+00   7.270600E+01   2.839904E+03   5.785224E+00   6.532574E+00
 12   8   2.556620E+00   7.270600E+01   2.839904E+03   5.785224E+00   6.532574E+00
 12   9   2.515918E+00   7.556892E+01   2.998504E+03   5.885090E+00   6.597607E+00
 12  10   2.515918E+00   7.556892E+01   2.998504E+03   5.885090E+00   6.597607E+00
 12  11   2.515918E+00   7.556892E+01   2.998504E+03   5.885090E+00   6.597607E+00
 12  12   2.515918E+00   7.556892E+01   2.998504E+03   5.885090E+00   6.597607E+00
 13   1   6.880555E+00   2.307166E+02   9.297417E+03   6.067228E+00   6.716215E+00
 13   2   6.880555E+00   2.307166E+02   9.297417E+03   6.067228E+00   6.716215E+00
 13   3   6.880555E+00   2.307166E+02   9.297417E+03   6.067228E+00   6.716215E+00
 13   4   6.880555E+00   2.307166E+02   9.297417E+03   6.067228E+00   6.716215E+00
 13   5   6.918152E+00   2.314799E+02   9.309771E+03   6.060988E+00   6.712152E+00
 13   6   6.918152E+00   2.314799E+02   9.309771E+03   6.060988E+00   6.712152E+00
 13   7   6.918152E+00   2.314799E+02   9.309771E+03   6.060988E+00   6.712152E+00
 13   8   6.918152E+00   2.314799E+02   9.309771E+03   6.060988E+00   6.712152E+00
 13   9   6.815841E+00   2.389482E+02   9.826328E+03   6.165216E+00   6.780025E+00
 13  10   6.815841E+00   2.389482E+02   9.826328E+03   6.165216E+00   6.780025E+00
 13  11   6.815841E+00   2.389482E+02   9.826328E+03   6.165216E+00   6.780025E+00
 13  12   6.815841E+00   2.389482E+02   9.826328E+03   6.165216E+00   6.780025E+00
 13  13   1.847911E+01   7.406286E+02   3.212842E+04   6.458159E+00   6.970789E+00
 14   1   6.880555E+00   2.307166E+02   9.297417E+03   6.067228E+00   6.716215E+00
 14   2   6.880555E+00   2.307166E+02   9.297417E+03   6.067228E+00   6.716215E+00
 14   3   6.880555E+00   2.307166E+02   9.297417E+03   6.067228E+00   6.716215E+00
 14   4   6.880555E+00   2.307166E+02   9.297417E+03   6.067228E+00   6.716215E+00
 14   5   6.918152E+00   2.314799E+02   9.309771E+03   6.060988E+00   6.712152E+00
 14   6   6.918152E+00   2.314799E+02   9.309771E+03   6.060988E+00   6.712152E+00
 14   7   6.918152E+00   2.314799E+02   9.309771E+03   6.060988E+00   6.712152E+00
 14   8   6.918152E+00   2.314799E+02   9.309771E+03   6.060988E+00   6.712152E+00
 14   9   6.815841E+00   2.389482E+02   9.826328E+03   6.165216E+00   6.780025E+00
 14  10   6.815841E+00   2.389482E+02   9.826328E+03   6.165216E+00   6.780025E+00
 14  11   6.815841E+00   2.389482E+02   9.826328E+03   6.165216E+00   6.780025E+00
 14  12   6.815841E+00   2.389482E+02   9.826328E+03   6.165216E+00   6.780025E+00
 14  13   1.847911E+01   7.406286E+02   3.212842E+04   6.458159E+00   6.970789E+00
 14  14   1.847911E+01   7.406286E+02   3.212842E+04   6.458159E+00   6.970789E+00
 15   1   6.880555E+00   2.307166E+02   9.297417E+03   6.067228E+00   6.716215E+00
 15   2   6.880555E+00   2.307166E+02   9.297417E+03   6.067228E+00   6.716215E+00
 15   3   6.880555E+00   2.307166E+02   9.297417E+03   6.067228E+00   6.716215E+00
 15   4   6.880555E+00   2.307166E+02   9.297417E+03   6.067228E+00   6.716215E+00
 15   5   6.918152E+00   2.314799E+02   9.309771E+03   6.060988E+00   6.712152E+00
 15   6   6.918152E+00   2.314799E+02   9.309771E+03   6.060988E+00   6.712152E+00
 15   7   6.918152E+00   2.314799E+02   9.309771E+03   6.060988E+00   6.712152E+00
 15   8   6.918152E+00   2.314799E+02   9.309771E+03   6.060988E+00   6.712152E+00
 15   9   6.815841E+00   2.389482E+02   9.826328E+03   6.165216E+00   6.780025E+00
 15  10   6.815841E+00   2.389482E+02   9.826328E+03   6.165216E+00   6.780025E+00
 15  11   6.815841E+00   2.389482E+02   9.826328E+03   6.165216E+00   6.780025E+00
 15  12   6.815841E+00   2.389482E+02   9.826328E+03   6.165216E+00   6.780025E+00
 15  13   1.847911E+01   7.406286E+02   3.212842E+04   6.458159E+00   6.970789E+00
 15  14   1.847911E+01   7.406286E+02   3.212842E+04   6.458159E+00   6.970789E+00
 15  15   1.847911E+01   7.406286E+02   3.212842E+04   6.458159E+00   6.970789E+00
 16   1   6.880555E+00   2.307166E+02   9.297417E+03   6.067228E+00   6.716215E+00
 16   2   6.880555E+00   2.307166E+02   9.297417E+03   6.067228E+00   6.716215E+00
 16   3   6.880555E+00   2.307166E+02   9.297417E+03   6.067228E+00   6.716215E+00
 16   4   6.880555E+00   2.307166E+02   9.297417E+03   6.067228E+00   6.716215E+00
 16   5   6.918152E+00   2.314799E+02   9.309771E+03   6.060988E+00   6.712152E+00
 16   6   6.918152E+00   2.314799E+02   9.309771E+03   6.060988E+00   6.712152E+00
 16   7   6.918152E+00   2.314799E+02   9.309771E+03   6.060988E+00   6.712152E+00
 16   8   6.918152E+00   2.314799E+02   9.309771E+03   6.060988E+00   6.712152E+00
 16   9   6.815841E+00   2.389482E+02   9.826328E+03   6.165216E+00   6.780025E+00
 16  10   6.815841E+00   2.389482E+02   9.826328E+03   6.165216E+00   6.780025E+00
 16  11   6.815841E+00   2.389482E+02   9.826328E+03   6.165216E+00   6.780025E+00
 16  12   6.815841E+00   2.389482E+02   9.826328E+03   6.165216E+00   6.780025E+00
 16  13   1.847911E+01   7.406286E+02   3.212842E+04   6.458159E+00   6.970789E+00
 16  14   1.847911E+01   7.406286E+02   3.212842E+04   6.458159E+00   6.970789E+00
 16  15   1.847911E+01   7.406286E+02   3.212842E+04   6.458159E+00   6.970789E+00
 16  16   1.847911E+01   7.406286E+02   3.212842E+04   6.458159E+00   6.970789E+00
 17   1   6.814099E+00   2.297160E+02   9.340315E+03   6.089140E+00   6.730484E+00
 17   2   6.814099E+00   2.297160E+02   9.340315E+03   6.089140E+00   6.730484E+00
 17   3   6.814099E+00   2.297160E+02   9.340315E+03   6.089140E+00   6.730484E+00
 17   4   6.814099E+00   2.297160E+02   9.340315E+03   6.089140E+00   6.730484E+00
 17   5   6.851457E+00   2.304828E+02   9.353279E+03   6.082941E+00   6.726447E+00
 17   6   6.851457E+00   2.304828E+02   9.353279E+03   6.082941E+00   6.726447E+00
 17   7   6.851457E+00   2.304828E+02   9.353279E+03   6.082941E+00   6.726447E+00
 17   8   6.851457E+00   2.304828E+02   9.353279E+03   6.082941E+00   6.726447E+00
 17   9   6.751570E+00   2.379115E+02   9.868614E+03   6.186621E+00   6.793964E+00
 17  10   6.751570E+00   2.379115E+02   9.868614E+03   6.186621E+00   6.793964E+00
 17  11   6.751570E+00   2.379115E+02   9.868614E+03   6.186621E+00   6.793964E+00
 17  12   6.751570E+00   2.379115E+02   9.868614E+03   6.186621E+00   6.793964E+00
 17  13   1.830751E+01   7.370495E+02   3.222690E+04   6.478269E+00   6.983885E+00
 17  14   1.830751E+01   7.370495E+02   3.222690E+04   6.478269E+00   6.983885E+00
 17  15   1.830751E+01   7.370495E+02   3.222690E+04   6.478269E+00   6.983885E+00
 17  16   1.830751E+01   7.370495E+02   3.222690E+04   6.478269E+00   6.983885E+00
 17  17   1.813798E+01   7.334927E+02   3.232275E+04   6.498252E+00   6.996898E+00
 18   1   6.814099E+00   2.297160E+02   9.340315E+03   6.089140E+00   6.730484E+00
 18   2   6.814099E+00   2.297160E+02   9.340315E+03   6.089140E+00   6.730484E+00
 18   3   6.814099E+00   2.297160E+02   9.340315E+03   6.089140E+00   6.730484E+00
 18   4   6.814099E+00   2.297160E+02   9.340315E+03   6.089140E+00   6.730484E+00
 18   5   6.851457E+00   2.304828E+02   9.353279E+03   6.082941E+00   6.726447E+00
 18   6   6.851457E+00   2.304828E+02   9.353279E+03   6.082941E+00   6.726447E+00
 18   7   6.851457E+00   2.304828E+02   9.353279E+03   6.082941E+00   6.726447E+00
 18   8   6.851457E+00   2.304828E+02   9.353279E+03   6.082941E+00   6.726447E+00
 18   9   6.751570E+00   2.379115E+02   9.868614E+03   6.186621E+00   6.793964E+00
 18  10   6.751570E+00   2.379115E+02   9.868614E+03   6.186621E+00   6.793964E+00
 18  11   6.751570E+00   2.379115E+02   9.868614E+03   6.186621E+00   6.793964E+00
 18  12   6.751570E+00   2.379115E+02   9.868614E+03   6.186621E+00   6.793964E+00
 18  13   1.830751E+01   7.370495E+02   3.222690E+04   6.478269E+00   6.983885E+00
 18  14   1.830751E+01   7.370495E+02   3.222690E+04   6.478269E+00   6.983885E+00
 18  15   1.830751E+01   7.370495E+02   3.222690E+04   6.478269E+00   6.983885E+00
 18  16   1.830751E+01   7.370495E+02   3.222690E+04   6.478269E+00   6.983885E+00
 18  17   1.813798E+01   7.334927E+02   3.232275E+04   6.498252E+00   6.996898E+00
 18  18   1.813798E+01   7.334927E+02   3.232275E+04   6.498252E+00   6.996898E+00
 19   1   6.814099E+00   2.297160E+02   9.340315E+03   6.089140E+00   6.730484E+00
 19   2   6.814099E+00   2.297160E+02   9.340315E+03   6.089140E+00   6.730484E+00
 19   3   6.814099E+00   2.297160E+02   9.340315E+03   6.089140E+00   6.730484E+00
 19   4   6.814099E+00   2.297160E+02   9.340315E+03   6.089140E+00   6.730484E+00
 19   5   6.851457E+00   2.304828E+02   9.353279E+03   6.082941E+00   6.726447E+00
 19   6   6.851457E+00   2.304828E+02   9.353279E+03   6.082941E+00   6.726447E+00
 19   7   6.851457E+00   2.304828E+02   9.353279E+03   6.082941E+00   6.726447E+00
 19   8   6.851457E+00   2.304828E+02   9.353279E+03   6.082941E+00   6.726447E+00
 19   9   6.751570E+00   2.379115E+02   9.868614E+03   6.186621E+00   6.793964E+00
 19  10   6.751570E+00   2.379115E+02   9.868614E+03   6.186621E+00   6.793964E+00
 19  11   6.751570E+00   2.379115E+02   9.868614E+03   6.186621E+00   6.793964E+00
 19  12   6.751570E+00   2.379115E+02   9.868614E+03   6.186621E+00   6.793964E+00
 19  13   1.830751E+01   7.370495E+02   3.222690E+04   6.478269E+00   6.983885E+00
 19  14   1.830751E+01   7.370495E+02   3.222690E+04   6.478269E+00   6.983885E+00
 19  15   1.830751E+01   7.370495E+02   3.222690E+04   6.478269E+00   6.983885E+00
 19  16   1.830751E+01   7.370495E+02   3.222690E+04   6.478269E+00   6.983885E+00
 19  17   1.813798E+01   7.334927E+02   3.232275E+04   6.498252E+00   6.996898E+00
 19  18   1.813798E+01   7.334927E+02   3.232275E+04   6.498252E+00   6.996898E+00
 19  19   1.813798E+01   7.334927E+02   3.232275E+04   6.498252E+00   6.996898E+00
 20   1   6.814099E+00   2.297160E+02   9.340315E+03   6.089140E+00   6.730484E+00
 20   2   6.814099E+00   2.297160E+02   9.340315E+03   6.089140E+00   6.730484E+00
 20   3   6.814099E+00   2.297160E+02   9.340315E+03   6.089140E+00   6.730484E+00
 20   4   6.814099E+00   2.297160E+02   9.340315E+03   6.089140E+00   6.730484E+00
 20   5   6.851457E+00   2.304828E+02   9.353279E+03   6.082941E+00   6.726447E+00
 20   6   6.851457E+00   2.304828E+02   9.353279E+03   6.082941E+00   6.726447E+00
 20   7   6.851457E+00   2.304828E+02   9.353279E+03   6.082941E+00   6.726447E+00
 20   8   6.851457E+00   2.304828E+02   9.353279E+03   6.082941E+00   6.726447E+00
 20   9   6.751570E+00   2.379115E+02   9.868614E+03   6.186621E+00   6.793964E+00
 20  10   6.751570E+00   2.379115E+02   9.868614E+03   6.186621E+00   6.793964E+00
 20  11   6.751570E+00   2.379115E+02   9.868614E+03   6.186621E+00   6.793964E+00
 20  12   6.751570E+00   2.379115E+02   9.868614E+03   6.186621E+00   6.793964E+00
 20  13   1.830751E+01   7.370495E+02   3.222690E+04   6.478269E+00   6.983885E+00
 20  14   1.830751E+01   7.370495E+02   3.222690E+04   6.478269E+00   6.983885E+00
 20  15   1.830751E+01   7.370495E+02   3.222690E+04   6.478269E+00   6.983885E+00
 20  16   1.830751E+01   7.370495E+02   3.222690E+04   6.478269E+00   6.983885E+00
 20  17   1.813798E+01   7.334927E+02   3.232275E+04   6.498252E+00   6.996898E+00
 20  18   1.813798E+01   7.334927E+02   3.232275E+04   6.498252E+00   6.996898E+00
 20  19   1.813798E+01   7.334927E+02   3.232275E+04   6.498252E+00   6.996898E+00
 20  20   1.813798E+01   7.334927E+02   3.232275E+04   6.498252E+00   6.996898E+00
 21   1   4.885986E+00   1.197988E+02   3.796424E+03   5.286899E+00   6.208065E+00
 21   2   4.885986E+00   1.197988E+02   3.796424E+03   5.286899E+00   6.208065E+00
 21   3   4.885986E+00   1.197988E+02   3.796424E+03   5.286899E+00   6.208065E+00
 21   4   4.885986E+00   1.197988E+02   3.796424E+03   5.286899E+00   6.208065E+00
 21   5   4.905123E+00   1.199153E+02   3.789967E+03   5.279502E+00   6.203248E+00
 21   6   4.905123E+00   1.199153E+02   3.789967E+03   5.279502E+00   6.203248E+00
 21   7   4.905123E+00   1.199153E+02   3.789967E+03   5.279502E+00   6.203248E+00
 21   8   4.905123E+00   1.199153E+02   3.789967E+03   5.279502E+00   6.203248E+00
 21   9   4.747059E+00   1.236369E+02   3.995874E+03   5.391607E+00   6.276251E+00
 21  10   4.747059E+00   1.236369E+02   3.995874E+03   5.391607E+00   6.276251E+00
 21  11   4.747059E+00   1.236369E+02   3.995874E+03   5.391607E+00   6.276251E+00
 21  12   4.747059E+00   1.236369E+02   3.995874E+03   5.391607E+00   6.276251E+00
 21  13   1.271737E+01   3.950829E+02   1.340693E+04   5.699064E+00   6.476467E+00
 21  14   1.271737E+01   3.950829E+02   1.340693E+04   5.699064E+00   6.476467E+00
 21  15   1.271737E+01   3.950829E+02   1.340693E+04   5.699064E+00   6.476467E+00
 21  16   1.271737E+01   3.950829E+02   1.340693E+04   5.699064E+00   6.476467E+00
 21  17   1.257156E+01   3.928182E+02   1.348760E+04   5.724227E+00   6.492853E+00
 21  18   1.257156E+01   3.928182E+02   1.348760E+04   5.724227E+00   6.492853E+00
 21  19   1.257156E+01   3.928182E+02   1.348760E+04   5.724227E+00   6.492853E+00
 21  20   1.257156E+01   3.928182E+02   1.348760E+04   5.724227E+00   6.492853E+00
 21  21   1.068613E+01   2.356674E+02   5.572185E+03   4.779089E+00   5.877379E+00
 22   1   4.885986E+00   1.197988E+02   3.796424E+03   5.286899E+00   6.208065E+00
 22   2   4.885986E+00   1.197988E+02   3.796424E+03   5.286899E+00   6.208065E+00
 22   3   4.885986E+00   1.197988E+02   3.796424E+03   5.286899E+00   6.208065E+00
 22   4   4.885986E+00   1.197988E+02   3.796424E+03   5.286899E+00   6.208065E+00
 22   5   4.905123E+00   1.199153E+02   3.789967E+03   5.279502E+00   6.203248E+00
 22   6   4.905123E+00   1.199153E+02   3.789967E+03   5.279502E+00   6.203248E+00
 22   7   4.905123E+00   1.199153E+02   3.789967E+03   5.279502E+00   6.203248E+00
 22   8   4.905123E+00   1.199153E+02   3.789967E+03   5.279502E+00   6.203248E+00
 22   9   4.747059E+00   1.236369E+02   3.995874E+03   5.391607E+00   6.276251E+00
 22  10   4.747059E+00   1.236369E+02   3.995874E+03   5.391607E+00   6.276251E+00
 22  11   4.747059E+00   1.236369E+02   3.995874E+03   5.391607E+00   6.276251E+00
 22  12   4.747059E+00   1.236369E+02   3.995874E+03   5.391607E+00   6.276251E+00
 22  13   1.271737E+01   3.950829E+02   1.340693E+04   5.699064E+00   6.476467E+00
 22  14   1.271737E+01   3.950829E+02   1.340693E+04   5.699064E+00   6.476467E+00
 22  15   1.271737E+01   3.950829E+02   1.340693E+04   5.699064E+00   6.476467E+00
 22  16   1.271737E+01   3.950829E+02   1.340693E+04   5.699064E+00   6.476467E+00
 22  17   1.257156E+01   3.928182E+02   1.348760E+04   5.724227E+00   6.492853E+00
 22  18   1.257156E+01   3.928182E+02   1.348760E+04   5.724227E+00   6.492853E+00
 22  19   1.257156E+01   3.928182E+02   1.348760E+04   5.724227E+00   6.492853E+00
 22  20   1.257156E+01   3.928182E+02   1.348760E+04   5.724227E+00   6.492853E+00
 22  21   1.068613E+01   2.356674E+02   5.572185E+03   4.779089E+00   5.877379E+00
 22  22   1.068613E+01   2.356674E+02   5.572185E+03   4.779089E+00   5.877379E+00
 23   1   4.885986E+00   1.197988E+02   3.796424E+03   5.286899E+00   6.208065E+00
 23   2   4.885986E+00   1.197988E+02   3.796424E+03   5.286899E+00   6.208065E+00
 23   3   4.885986E+00   1.197988E+02   3.796424E+03   5.286899E+00   6.208065E+00
 23   4   4.885986E+00   1.197988E+02   3.796424E+03   5.286899E+00   6.208065E+00
 23   5   4.905123E+00   1.199153E+02   3.789967E+03   5.279502E+00   6.203248E+00
 23   6   4.905123E+00   1.199153E+02   3.789967E+03   5.279502E+00   6.203248E+00
 23   7   4.905123E+00   1.199153E+02   3.789967E+03   5.279502E+00   6.203248E+00
 23   8   4.905123E+00   1.199153E+02   3.789967E+03   5.279502E+00   6.203248E+00
 23   9   4.747059E+00   1.236369E+02   3.995874E+03   5.391607E+00   6.276251E+00
 23  10   4.747059E+00   1.236369E+02   3.995874E+03   5.391607E+00   6.276251E+00
 23  11   4.747059E+00   1.236369E+02   3.995874E+03   5.391607E+00   6.276251E+00
 23  12   4.747059E+00   1.236369E+02   3.995874E+03   5.391607E+00   6.276251E+00
 23  13   1.271737E+01   3.950829E+02   1.340693E+04   5.699064E+00   6.476467E+00
 23  14   1.271737E+01   3.950829E+02   1.340693E+04   5.699064E+00   6.476467E+00
 23  15   1.271737E+01   3.950829E+02   1.340693E+04   5.699064E+00   6.476467E+00
 23  16   1.271737E+01   3.950829E+02   1.340693E+04   5.699064E+00   6.476467E+00
 23  17   1.257156E+01   3.928182E+02   1.348760E+04   5.724227E+00   6.492853E+00
 23  18   1.257156E+01   3.928182E+02   1.348760E+04   5.724227E+00   6.492853E+00
 23  19   1.257156E+01   3.928182E+02   1.348760E+04   5.724227E+00   6.492853E+00
 23  20   1.257156E+01   3.928182E+02   1.348760E+04   5.724227E+00   6.492853E+00
 23  21   1.068613E+01   2.356674E+02   5.572185E+03   4.779089E+00   5.877379E+00
 23  22   1.068613E+01   2.356674E+02   5.572185E+03   4.779089E+00   5.877379E+00
 23  23   1.068613E+01   2.356674E+02   5.572185E+03   4.779089E+00   5.877379E+00
 24   1   4.885986E+00   1.197988E+02   3.796424E+03   5.286899E+00   6.208065E+00
 24   2   4.885986E+00   1.197988E+02   3.796424E+03   5.286899E+00   6.208065E+00
 24   3   4.885986E+00   1.197988E+02   3.796424E+03   5.286899E+00   6.208065E+00
 24   4   4.885986E+00   1.197988E+02   3.796424E+03   5.286899E+00   6.208065E+00
 24   5   4.905123E+00   1.199153E+02   3.789967E+03   5.279502E+00   6.203248E+00
 24   6   4.905123E+00   1.199153E+02   3.789967E+03   5.279502E+00   6.203248E+00
 24   7   4.905123E+00   1.199153E+02   3.789967E+03   5.279502E+00   6.203248E+00
 24   8   4.905123E+00   1.199153E+02   3.789967E+03   5.279502E+00   6.203248E+00
 24   9   4.747059E+00   1.236369E+02   3.995874E+03   5.391607E+00   6.276251E+00
 24  10   4.747059E+00   1.236369E+02   3.995874E+03   5.391607E+00   6.276251E+00
 24  11   4.747059E+00   1.236369E+02   3.995874E+03   5.391607E+00   6.276251E+00
 24  12   4.747059E+00   1.236369E+02   3.995874E+03   5.391607E+00   6.276251E+00
 24  13   1.271737E+01   3.950829E+02   1.340693E+04   5.699064E+00   6.476467E+00
 24  14   1.271737E+01   3.950829E+02   1.340693E+04   5.699064E+00   6.476467E+00
 24  15   1.271737E+01   3.950829E+02   1.340693E+04   5.699064E+00   6.476467E+00
 24  16   1.271737E+01   3.950829E+02   1.340693E+04   5.699064E+00   6.476467E+00
 24  17   1.257156E+01   3.928182E+02   1.348760E+04   5.724227E+00   6.492853E+00
 24  18   1.257156E+01   3.928182E+02   1.348760E+04   5.724227E+00   6.492853E+00
 24  19   1.257156E+01   3.928182E+02   1.348760E+04   5.724227E+00   6.492853E+00
 24  20   1.257156E+01   3.928182E+02   1.348760E+04   5.724227E+00   6.492853E+00
 24  21   1.068613E+01   2.356674E+02   5.572185E+03   4.779089E+00   5.877379E+00
 24  22   1.068613E+01   2.356674E+02   5.572185E+03   4.779089E+00   5.877379E+00
 24  23   1.068613E+01   2.356674E+02   5.572185E+03   4.779089E+00   5.877379E+00
 24  24   1.068613E+01   2.356674E+02   5.572185E+03   4.779089E+00   5.877379E+00
 25   1   4.790229E+00   1.183631E+02   3.773192E+03   5.304875E+00   6.219771E+00
 25   2   4.790229E+00   1.183631E+02   3.773192E+03   5.304875E+00   6.219771E+00
 25   3   4.790229E+00   1.183631E+02   3.773192E+03   5.304875E+00   6.219771E+00
 25   4   4.790229E+00   1.183631E+02   3.773192E+03   5.304875E+00   6.219771E+00
 25   5   4.809151E+00   1.184848E+02   3.767064E+03   5.297510E+00   6.214975E+00
 25   6   4.809151E+00   1.184848E+02   3.767064E+03   5.297510E+00   6.214975E+00
 25   7   4.809151E+00   1.184848E+02   3.767064E+03   5.297510E+00   6.214975E+00
 25   8   4.809151E+00   1.184848E+02   3.767064E+03   5.297510E+00   6.214975E+00
 25   9   4.655953E+00   1.221506E+02   3.971448E+03   5.409428E+00   6.287856E+00
 25  10   4.655953E+00   1.221506E+02   3.971448E+03   5.409428E+00   6.287856E+00
 25  11   4.655953E+00   1.221506E+02   3.971448E+03   5.409428E+00   6.287856E+00
 25  12   4.655953E+00   1.221506E+02   3.971448E+03   5.409428E+00   6.287856E+00
 25  13   1.247643E+01   3.899736E+02   1.331524E+04   5.716567E+00   6.487865E+00
 25  14   1.247643E+01   3.899736E+02   1.331524E+04   5.716567E+00   6.487865E+00
 25  15   1.247643E+01   3.899736E+02   1.331524E+04   5.716567E+00   6.487865E+00
 25  16   1.247643E+01   3.899736E+02   1.331524E+04   5.716567E+00   6.487865E+00
 25  17   1.233395E+01   3.877424E+02   1.339393E+04   5.741586E+00   6.504157E+00
 25  18   1.233395E+01   3.877424E+02   1.339393E+04   5.741586E+00   6.504157E+00
 25  19   1.233395E+01   3.877424E+02   1.339393E+04   5.741586E+00   6.504157E+00
 25  20   1.233395E+01   3.877424E+02   1.339393E+04   5.741586E+00   6.504157E+00
 25  21   1.043546E+01   2.321263E+02   5.543805E+03   4.801421E+00   5.891922E+00
 25  22   1.043546E+01   2.321263E+02   5.543805E+03   4.801421E+00   5.891922E+00
 25  23   1.043546E+01   2.321263E+02   5.543805E+03   4.801421E+00   5.891922E+00
 25  24   1.043546E+01   2.321263E+02   5.543805E+03   4.801421E+00   5.891922E+00
 25  25   1.019185E+01   2.286483E+02   5.515025E+03   4.823597E+00   5.906363E+00
 26   1   4.790229E+00   1.183631E+02   3.773192E+03   5.304875E+00   6.219771E+00
 26   2   4.790229E+00   1.183631E+02   3.773192E+03   5.304875E+00   6.219771E+00
 26   3   4.790229E+00   1.183631E+02   3.773192E+03   5.304875E+00   6.219771E+00
 26   4   4.790229E+00   1.183631E+02   3.773192E+03   5.304875E+00   6.219771E+00
 26   5   4.809151E+00   1.184848E+02   3.767064E+03   5.297510E+00   6.214975E+00
 26   6   4.809151E+00   1.184848E+02   3.767064E+03   5.297510E+00   6.214975E+00
 26   7   4.809151E+00   1.184848E+02   3.767064E+03   5.297510E+00   6.214975E+00
 26   8   4.809151E+00   1.184848E+02   3.767064E+03   5.297510E+00   6.214975E+00
 26   9   4.655953E+00   1.221506E+02   3.971448E+03   5.409428E+00   6.287856E+00
 26  10   4.655953E+00   1.221506E+02   3.971448E+03   5.409428E+00   6.287856E+00
 26  11   4.655953E+00   1.221506E+02   3.971448E+03   5.409428E+00   6.287856E+00
 26  12   4.655953E+00   1.221506E+02   3.971448E+03   5.409428E+00   6.287856E+00
 26  13   1.247643E+01   3.899736E+02   1.331524E+04   5.716567E+00   6.487865E+00
 26  14   1.247643E+01   3.899736E+02   1.331524E+04   5.716567E+00   6.487865E+00
 26  15   1.247643E+01   3.899736E+02   1.331524E+04   5.716567E+00   6.487865E+00
 26  16   1.247643E+01   3.899736E+02   1.331524E+04   5.716567E+00   6.487865E+00
 26  17   1.233395E+01   3.877424E+02   1.339393E+04   5.741586E+00   6.504157E+00
 26  18   1.233395E+01   3.877424E+02   1.339393E+04   5.741586E+00   6.504157E+00
 26  19   1.233395E+01   3.877424E+02   1.339393E+04   5.741586E+00   6.504157E+00
 26  20   1.233395E+01   3.877424E+02   1.339393E+04   5.741586E+00   6.504157E+00
 26  21   1.043546E+01   2.321263E+02   5.543805E+03   4.801421E+00   5.891922E+00
 26  22   1.043546E+01   2.321263E+02   5.543805E+03   4.801421E+00   5.891922E+00
 26  23   1.043546E+01   2.321263E+02   5.543805E+03   4.801421E+00   5.891922E+00
 26  24   1.043546E+01   2.321263E+02   5.543805E+03   4.801421E+00   5.891922E+00
 26  25   1.019185E+01   2.286483E+02   5.515025E+03   4.823597E+00   5.906363E+00
 26  26   1.019185E+01   2.286483E+02   5.515025E+03   4.823597E+00   5.906363E+00
 27   1   4.790229E+00   1.183631E+02   3.773192E+03   5.304875E+00   6.219771E+00
 27   2   4.790229E+00   1.183631E+02   3.773192E+03   5.304875E+00   6.219771E+00
 27   3   4.790229E+00   1.183631E+02   3.773192E+03   5.304875E+00   6.219771E+00
 27   4   4.790229E+00   1.183631E+02   3.773192E+03   5.304875E+00   6.219771E+00
 27   5   4.809151E+00   1.184848E+02   3.767064E+03   5.297510E+00   6.214975E+00
 27   6   4.809151E+00   1.184848E+02   3.767064E+03   5.297510E+00   6.214975E+00
 27   7   4.809151E+00   1.184848E+02   3.767064E+03   5.297510E+00   6.214975E+00
 27   8   4.809151E+00   1.184848E+02   3.767064E+03   5.297510E+00   6.214975E+00
 27   9   4.655953E+00   1.221506E+02   3.971448E+03   5.409428E+00   6.287856E+00
 27  10   4.655953E+00   1.221506E+02   3.971448E+03   5.409428E+00   6.287856E+00
 27  11   4.655953E+00   1.221506E+02   3.971448E+03   5.409428E+00   6.287856E+00
 27  12   4.655953E+00   1.221506E+02   3.971448E+03   5.409428E+00   6.287856E+00
 27  13   1.247643E+01   3.899736E+02   1.331524E+04   5.716567E+00   6.487865E+00
 27  14   1.247643E+01   3.899736E+02   1.331524E+04   5.716567E+00   6.487865E+00
 27  15   1.247643E+01   3.899736E+02   1.331524E+04   5.716567E+00   6.487865E+00
 27  16   1.247643E+01   3.899736E+02   1.331524E+04   5.716567E+00   6.487865E+00
 27  17   1.233395E+01   3.877424E+02   1.339393E+04   5.741586E+00   6.504157E+00
 27  18   1.233395E+01   3.877424E+02   1.339393E+04   5.741586E+00   6.504157E+00
 27  19   1.233395E+01   3.877424E+02   1.339393E+04   5.741586E+00   6.504157E+00
 27  20   1.233395E+01   3.877424E+02   1.339393E+04   5.741586E+00   6.504157E+00
 27  21   1.043546E+01   2.321263E+02   5.543805E+03   4.801421E+00   5.891922E+00
 27  22   1.043546E+01   2.321263E+02   5.543805E+03   4.801421E+00   5.891922E+00
 27  23   1.043546E+01   2.321263E+02   5.543805E+03   4.801421E+00   5.891922E+00
 27  24   1.043546E+01   2.321263E+02   5.543805E+03   4.801421E+00   5.891922E+00
 27  25   1.019185E+01   2.286483E+02   5.515025E+03   4.823597E+00   5.906363E+00
 27  26   1.019185E+01   2.286483E+02   5.515025E+03   4.823597E+00   5.906363E+00
 27  27   1.019185E+01   2.286483E+02   5.515025E+03   4.823597E+00   5.906363E+00
 28   1   4.790229E+00   1.183631E+02   3.773192E+03   5.304875E+00   6.219771E+00
 28   2   4.790229E+00   1.183631E+02   3.773192E+03   5.304875E+00   6.219771E+00
 28   3   4.790229E+00   1.183631E+02   3.773192E+03   5.304875E+00   6.219771E+00
 28   4   4.790229E+00   1.183631E+02   3.773192E+03   5.304875E+00   6.219771E+00
 28   5   4.809151E+00   1.184848E+02   3.767064E+03   5.297510E+00   6.214975E+00
 28   6   4.809151E+00   1.184848E+02   3.767064E+03   5.297510E+00   6.214975E+00
 28   7   4.809151E+00   1.184848E+02   3.767064E+03   5.297510E+00   6.214975E+00
 28   8   4.809151E+00   1.184848E+02   3.767064E+03   5.297510E+00   6.214975E+00
 28   9   4.655953E+00   1.221506E+02   3.971448E+03   5.409428E+00   6.287856E+00
 28  10   4.655953E+00   1.221506E+02   3.971448E+03   5.409428E+00   6.287856E+00
 28  11   4.655953E+00   1.221506E+02   3.971448E+03   5.409428E+00   6.287856E+00
 28  12   4.655953E+00   1.221506E+02   3.971448E+03   5.409428E+00   6.287856E+00
 28  13   1.247643E+01   3.899736E+02   1.331524E+04   5.716567E+00   6.487865E+00
 28  14   1.247643E+01   3.899736E+02   1.331524E+04   5.716567E+00   6.487865E+00
 28  15   1.247643E+01   3.899736E+02   1.331524E+04   5.716567E+00   6.487865E+00
 28  16   1.247643E+01   3.899736E+02   1.331524E+04   5.716567E+00   6.487865E+00
 28  17   1.233395E+01   3.877424E+02   1.339393E+04   5.741586E+00   6.504157E+00
 28  18   1.233395E+01   3.877424E+02   1.339393E+04   5.741586E+00   6.504157E+00
 28  19   1.233395E+01   3.877424E+02   1.339393E+04   5.741586E+00   6.504157E+00
 28  20   1.233395E+01   3.877424E+02   1.339393E+04   5.741586E+00   6.504157E+00
 28  21   1.043546E+01   2.321263E+02   5.543805E+03   4.801421E+00   5.891922E+00
 28  22   1.043546E+01   2.321263E+02   5.543805E+03   4.801421E+00   5.891922E+00
 28  23   1.043546E+01   2.321263E+02   5.543805E+03   4.801421E+00   5.891922E+00
 28  24   1.043546E+01   2.321263E+02   5.543805E+03   4.801421E+00   5.891922E+00
 28  25   1.019185E+01   2.286483E+02   5.515025E+03   4.823597E+00   5.906363E+00
 28  26   1.019185E+01   2.286483E+02   5.515025E+03   4.823597E+00   5.906363E+00
 28  27   1.019185E+01   2.286483E+02   5.515025E+03   4.823597E+00   5.906363E+00
 28  28   1.019185E+01   2.286483E+02   5.515025E+03   4.823597E+00   5.906363E+00
 
+ van der Waals energies, forces and stresses (Ry,bohr)
  Evdw(total,Ry)   =  -1.678913702372E-01
  Evdw(C6,Ry)      =  -8.398295470814E-02
  Evdw(C8,Ry)      =  -4.788107719157E-02
  Evdw(C10,Ry)     =  -3.602733833748E-02
  Fvdw (001,Ry/bohr) =  -8.058606171349E-05  -2.537447742604E-04  -4.848638730784E-05
  Fvdw (002,Ry/bohr) =   8.058606171348E-05   2.537447742604E-04   4.848638730784E-05
  Fvdw (003,Ry/bohr) =   8.058606171348E-05  -2.537447742604E-04   4.848638730784E-05
  Fvdw (004,Ry/bohr) =  -8.058606171349E-05   2.537447742604E-04  -4.848638730784E-05
  Fvdw (005,Ry/bohr) =   2.053188313377E-04  -9.985152966776E-05   2.518935830120E-04
  Fvdw (006,Ry/bohr) =  -2.053188313377E-04   9.985152966777E-05  -2.518935830120E-04
  Fvdw (007,Ry/bohr) =  -2.053188313377E-04  -9.985152966777E-05  -2.518935830120E-04
  Fvdw (008,Ry/bohr) =   2.053188313377E-04   9.985152966777E-05   2.518935830120E-04
  Fvdw (009,Ry/bohr) =   9.193383150393E-05  -2.014949738026E-04   9.426936872297E-05
  Fvdw (010,Ry/bohr) =  -9.193383150392E-05   2.014949738026E-04  -9.426936872297E-05
  Fvdw (011,Ry/bohr) =  -9.193383150392E-05  -2.014949738026E-04  -9.426936872297E-05
  Fvdw (012,Ry/bohr) =   9.193383150393E-05   2.014949738026E-04   9.426936872297E-05
  Fvdw (013,Ry/bohr) =   8.438278394390E-05  -5.222024677772E-04   2.392449580006E-04
  Fvdw (014,Ry/bohr) =  -8.438278394392E-05   5.222024677772E-04  -2.392449580006E-04
  Fvdw (015,Ry/bohr) =  -8.438278394390E-05  -5.222024677772E-04  -2.392449580006E-04
  Fvdw (016,Ry/bohr) =   8.438278394390E-05   5.222024677772E-04   2.392449580006E-04
  Fvdw (017,Ry/bohr) =   3.045941502259E-04   1.743348087962E-05  -2.991734608768E-04
  Fvdw (018,Ry/bohr) =  -3.045941502259E-04  -1.743348087962E-05   2.991734608769E-04
  Fvdw (019,Ry/bohr) =  -3.045941502259E-04   1.743348087961E-05   2.991734608769E-04
  Fvdw (020,Ry/bohr) =   3.045941502259E-04  -1.743348087961E-05  -2.991734608768E-04
  Fvdw (021,Ry/bohr) =  -2.644310431833E-05   2.799268463734E-04  -4.002020665242E-04
  Fvdw (022,Ry/bohr) =   2.644310431831E-05  -2.799268463734E-04   4.002020665242E-04
  Fvdw (023,Ry/bohr) =   2.644310431832E-05   2.799268463734E-04   4.002020665242E-04
  Fvdw (024,Ry/bohr) =  -2.644310431834E-05  -2.799268463734E-04  -4.002020665242E-04
  Fvdw (025,Ry/bohr) =   5.422386664301E-04  -3.287190626216E-04   5.405328101613E-05
  Fvdw (026,Ry/bohr) =  -5.422386664300E-04   3.287190626216E-04  -5.405328101612E-05
  Fvdw (027,Ry/bohr) =  -5.422386664300E-04  -3.287190626216E-04  -5.405328101612E-05
  Fvdw (028,Ry/bohr) =   5.422386664301E-04   3.287190626216E-04   5.405328101613E-05
  sigma_vdw (Ry/bohr**3) =  -1.149931251206E-04  -2.159934015498E-20  -9.245192494163E-06  
                            -2.159934015498E-20  -1.125658676425E-04  -2.253901733084E-20  
                            -9.245192494163E-06  -2.253901733084E-20  -1.191472195237E-04  
  sigma_vdw (GPa) =  -1.691606988264E+00  -3.177372100265E-16  -1.360014541266E-01  
                     -3.177372100265E-16  -1.655900804020E+00  -3.315603361980E-16  
                     -1.360014541266E-01  -3.315603361980E-16  -1.752715816420E+00  
 

!    total energy              =    -496.96563662 Ry
     Harris-Foulkes estimate   =    -496.96563662 Ry
     estimated scf accuracy    <          2.8E-09 Ry

     total all-electron energy =     -1829.814948 Ry

     The total energy is the sum of the following terms:

     one-electron contribution =    -217.00158171 Ry
     hartree contribution      =     147.43328682 Ry
     xc contribution           =    -101.63708514 Ry
     ewald contribution        =    -195.08467362 Ry
     Dispersion XDM Correction =      -0.16789137 Ry
     one-center paw contrib.   =    -130.50769160 Ry

     convergence has been achieved in  16 iterations

     Forces acting on atoms (Ry/au):

     atom    1 type  1   force =     0.00000259   -0.00004009    0.00000140
     atom    2 type  1   force =    -0.00000259    0.00004009   -0.00000140
     atom    3 type  1   force =    -0.00000259   -0.00004009   -0.00000140
     atom    4 type  1   force =     0.00000259    0.00004009    0.00000140
     atom    5 type  1   force =     0.00006906    0.00001311    0.00005492
     atom    6 type  1   force =    -0.00006906   -0.00001311   -0.00005492
     atom    7 type  1   force =    -0.00006906    0.00001311   -0.00005492
     atom    8 type  1   force =     0.00006906   -0.00001311    0.00005492
     atom    9 type  1   force =     0.00000450   -0.00001765   -0.00006352
     atom   10 type  1   force =    -0.00000450    0.00001765    0.00006352
     atom   11 type  1   force =    -0.00000450   -0.00001765    0.00006352
     atom   12 type  1   force =     0.00000450    0.00001765   -0.00006352
     atom   13 type  2   force =     0.00002131    0.00001197   -0.00000606
     atom   14 type  2   force =    -0.00002131   -0.00001197    0.00000606
     atom   15 type  2   force =    -0.00002131    0.00001197    0.00000606
     atom   16 type  2   force =     0.00002131   -0.00001197   -0.00000606
     atom   17 type  2   force =     0.00006123    0.00001250   -0.00008513
     atom   18 type  2   force =    -0.00006123   -0.00001250    0.00008513
     atom   19 type  2   force =    -0.00006123    0.00001250    0.00008513
     atom   20 type  2   force =     0.00006123   -0.00001250   -0.00008513
     atom   21 type  3   force =     0.00001551   -0.00006354   -0.00002001
     atom   22 type  3   force =    -0.00001551    0.00006354    0.00002001
     atom   23 type  3   force =    -0.00001551   -0.00006354    0.00002001
     atom   24 type  3   force =     0.00001551    0.00006354   -0.00002001
     atom   25 type  3   force =     0.00002785   -0.00001554    0.00004460
     atom   26 type  3   force =    -0.00002785    0.00001554   -0.00004460
     atom   27 type  3   force =    -0.00002785   -0.00001554   -0.00004460
     atom   28 type  3   force =     0.00002785    0.00001554    0.00004460

     Total force =     0.000366     Total SCF correction =     0.000132
     SCF correction compared to forces is large: reduce conv_thr to get better values


     entering subroutine stress ...

          total   stress  (Ry/bohr**3)                   (kbar)     P=   -0.04
  -0.00000001   0.00000000  -0.00000011          0.00      0.00     -0.02
   0.00000000  -0.00000034   0.00000000          0.00     -0.05      0.00
  -0.00000011   0.00000000  -0.00000043         -0.02      0.00     -0.06


     BFGS Geometry Optimization

     bfgs converged in   1 scf cycles and   0 bfgs steps
     (criteria: energy <  1.0E-05, force <  1.0E-04, cell <  5.0E-01)

     End of BFGS Geometry Optimization

     Final enthalpy =    -496.9656366166 Ry
Begin final coordinates
     new unit-cell volume =   1622.84566 a.u.^3 (   240.48091 Ang^3 )

CELL_PARAMETERS (alat=  1.00000000)
  10.441425429   0.000000000  -0.005872523
   0.000000000  16.317828537   0.000000000
  -0.250724576   0.000000000   9.524923384

ATOMIC_POSITIONS (crystal)
h        0.977996201   0.830578379   0.904287307
h        0.022003799   0.169421621   0.095712693
h        0.022003799   0.330578379   0.595712693
h        0.977996201   0.669421621   0.404287307
h        0.183153748   0.894168191   0.150342949
h        0.816846252   0.105831809   0.849657051
h        0.816846252   0.394168191   0.349657051
h        0.183153748   0.605831809   0.650342949
h        0.552720577   0.884944351   0.600822610
h        0.447279423   0.115055649   0.399177390
h        0.447279423   0.384944351   0.899177390
h        0.552720577   0.615055649   0.100822610
c        0.082925428   0.932299149   0.971654072
c        0.917074572   0.067700851   0.028345928
c        0.917074572   0.432299149   0.528345928
c        0.082925428   0.567700851   0.471654072
c        0.262924508   0.966626335   0.761472302
c        0.737075492   0.033373665   0.238527698
c        0.737075492   0.466626335   0.738527698
c        0.262924508   0.533373665   0.261472302
o        0.248158831   0.080401971   0.612041765
o        0.751841169   0.919598029   0.387958235
o        0.751841169   0.580401971   0.887958235
o        0.248158831   0.419598029   0.112041765
o        0.436385180   0.861622152   0.750471405
o        0.563614820   0.138377848   0.249528595
o        0.563614820   0.361622152   0.749528595
o        0.436385180   0.638377848   0.250471405
End final coordinates



     A final scf calculation at the relaxed structure.
     The G-vectors are recalculated for the final unit cell
     Results may differ from those at the preceding step.
 
     Parallelization info
     --------------------
     sticks:   dense  smooth     PW     G-vecs:    dense   smooth      PW
     Min        2711    1085    294               155007    39196    5531
     Max        2712    1086    295               155008    39224    5532
     Sum       10845    4343   1179               620029   156847   22125
 

     Title: 
     crystal                                                                    


     bravais-lattice index     =            0
     lattice parameter (alat)  =       1.0000  a.u.
     unit-cell volume          =    1622.8457 (a.u.)^3
     number of atoms/cell      =           28
     number of atomic types    =            3
     number of electrons       =        92.00
     number of Kohn-Sham states=           46
     kinetic-energy cutoff     =      80.0000  Ry
     charge density cutoff     =     800.0000  Ry
     convergence threshold     =      1.0E-08
     mixing beta               =       0.7000
     number of iterations used =            8  plain     mixing
     Exchange-correlation      =  SLA  PW   B86B PBC ( 1  4 22  4 0 0)

     celldm(1)=   1.000000  celldm(2)=   0.000000  celldm(3)=   0.000000
     celldm(4)=   0.000000  celldm(5)=   0.000000  celldm(6)=   0.000000

     crystal axes: (cart. coord. in units of alat)
               a(1) = (  10.441425   0.000000  -0.005873 )  
               a(2) = (   0.000000  16.317829   0.000000 )  
               a(3) = (  -0.250725   0.000000   9.524923 )  

     reciprocal axes: (cart. coord. in units 2 pi/alat)
               b(1) = (  0.095774  0.000000  0.002521 )  
               b(2) = (  0.000000  0.061283  0.000000 )  
               b(3) = (  0.000059  0.000000  0.104989 )  


     PseudoPot. # 1 for  H read from file:
     ./h.UPF
     MD5 check sum: a05c38eace8e4bf5ff015d364fdf499b
     Pseudo is Projector augmented-wave, Zval =  1.0
     Generated using "atomic" code by A. Dal Corso  v.5.0.2 svn rev. 10467M
     Shape of augmentation charge: PSQ
     Using radial grid of  929 points,  2 beta functions with: 
                l(1) =   0
                l(2) =   0
     Q(r) pseudized with 0 coefficients 


     PseudoPot. # 2 for  C read from file:
     ./c.UPF
     MD5 check sum: d23c832541b58f97580b3287d177e92c
     Pseudo is Projector augmented-wave + core cor, Zval =  4.0
     Generated using "atomic" code by A. Dal Corso  v.5.0.2 svn rev. 10467M
     Shape of augmentation charge: BESSEL
     Using radial grid of 1073 points,  4 beta functions with: 
                l(1) =   0
                l(2) =   0
                l(3) =   1
                l(4) =   1
     Q(r) pseudized with 0 coefficients 


     PseudoPot. # 3 for  O read from file:
     ./o.UPF
     MD5 check sum: e5d0ebeb85377a04d0834d2ed76ab915
     Pseudo is Projector augmented-wave + core cor, Zval =  6.0
     Generated using "atomic" code by A. Dal Corso  v.5.0.2 svn rev. 10467M
     Shape of augmentation charge: BESSEL
     Using radial grid of 1095 points,  4 beta functions with: 
                l(1) =   0
                l(2) =   0
                l(3) =   1
                l(4) =   1
     Q(r) pseudized with 0 coefficients 


     atomic species   valence    mass     pseudopotential
        h              1.00     1.00794      H( 1.00)
        c              4.00    12.01070      C( 1.00)
        o              6.00    15.99940      O( 1.00)

      4 Sym. Ops., with inversion, found ( 2 have fractional translation)



   Cartesian axes

     site n.     atom                  positions (alat units)
         1           h   tau(   1) = (   9.9849474  13.5532356   8.6075240  )
         2           h   tau(   2) = (   0.2057535   2.7645930   0.9115268  )
         3           h   tau(   3) = (   0.0803912   5.3943213   5.6739885  )
         4           h   tau(   4) = (  10.1103096  10.9235072   3.8450623  )
         5           h   tau(   5) = (   1.8746915  14.5908832   1.4309295  )
         6           h   tau(   6) = (   8.3160093   1.7269453   8.0881214  )
         7           h   tau(   7) = (   8.4413716   6.4319690   3.3256597  )
         8           h   tau(   8) = (   1.7493292   9.8858596   6.1933912  )
         9           h   tau(   9) = (   5.6205497  14.4403702   5.7195435  )
        10           h   tau(  10) = (   4.5701512   1.8774584   3.7995074  )
        11           h   tau(  11) = (   4.4447889   6.2814559   8.5619691  )
        12           h   tau(  12) = (   5.7459120  10.0363726   0.9570818  )
        13           c   tau(  13) = (   0.6222421  15.2130977   9.2544436  )
        14           c   tau(  14) = (   9.5684587   1.1047309   0.2646073  )
        15           c   tau(  15) = (   9.4430964   7.0541834   5.0270689  )
        16           c   tau(  16) = (   0.7476044   9.2636451   4.4919819  )
        17           c   tau(  17) = (   2.5543868  15.7732428   7.2514213  )
        18           c   tau(  18) = (   7.6363140   0.5445857   2.2676296  )
        19           c   tau(  19) = (   7.5109517   7.6143285   7.0300912  )
        20           c   tau(  20) = (   2.6797491   8.7035000   2.4889596  )
        21           o   tau(  21) = (   2.4376780   1.3119856   5.8281936  )
        22           o   tau(  22) = (   7.7530228  15.0058430   3.6908573  )
        23           o   tau(  23) = (   7.6276605   9.4708998   8.4533190  )
        24           o   tau(  24) = (   2.5630403   6.8469287   1.0657319  )
        25           o   tau(  25) = (   4.3683217  14.0598025   7.1456200  )
        26           o   tau(  26) = (   5.8223792   2.2580260   2.3734309  )
        27           o   tau(  27) = (   5.6970169   5.9008883   7.1358926  )
        28           o   tau(  28) = (   4.4936840  10.4169403   2.3831583  )

     number of k points=    16
                       cart. coord. in units 2pi/alat
        k(    1) = (   0.0119791   0.0076603   0.0134388), wk =   0.1250000
        k(    2) = (   0.0119939   0.0076603   0.0396861), wk =   0.1250000
        k(    3) = (   0.0119496   0.0076603  -0.0390558), wk =   0.1250000
        k(    4) = (   0.0119643   0.0076603  -0.0128085), wk =   0.1250000
        k(    5) = (   0.0119791   0.0229810   0.0134388), wk =   0.1250000
        k(    6) = (   0.0119939   0.0229810   0.0396861), wk =   0.1250000
        k(    7) = (   0.0119496   0.0229810  -0.0390558), wk =   0.1250000
        k(    8) = (   0.0119643   0.0229810  -0.0128085), wk =   0.1250000
        k(    9) = (   0.0359225   0.0076603   0.0140691), wk =   0.1250000
        k(   10) = (   0.0359373   0.0076603   0.0403164), wk =   0.1250000
        k(   11) = (   0.0358930   0.0076603  -0.0384256), wk =   0.1250000
        k(   12) = (   0.0359078   0.0076603  -0.0121783), wk =   0.1250000
        k(   13) = (   0.0359225   0.0229810   0.0140691), wk =   0.1250000
        k(   14) = (   0.0359373   0.0229810   0.0403164), wk =   0.1250000
        k(   15) = (   0.0358930   0.0229810  -0.0384256), wk =   0.1250000
        k(   16) = (   0.0359078   0.0229810  -0.0121783), wk =   0.1250000

     Dense  grid:   620029 G-vectors     FFT dimensions: (  96, 150,  90)

     Smooth grid:   156847 G-vectors     FFT dimensions: (  60,  96,  60)

     Largest allocated arrays     est. size (Mb)     dimensions
        Kohn-Sham Wavefunctions         3.46 Mb     (    4925,   46)
        NL pseudopotentials            11.42 Mb     (    4925,  152)
        Each V/rho on FFT grid          5.05 Mb     (  331200)
        Each G-vector array             1.18 Mb     (  155008)
        G-vector shells                 0.99 Mb     (  130379)
     Largest temporary arrays     est. size (Mb)     dimensions
        Auxiliary wavefunctions        13.83 Mb     (    4925,  184)
        Each subspace H/S matrix        0.52 Mb     (     184,  184)
        Each <psi_i|beta_j> matrix      0.11 Mb     (     152,   46)
        Arrays for rho mixing          40.43 Mb     (  331200,    8)

     Initial potential from superposition of free atoms

     starting charge   91.99955, renormalised to   92.00000
     Starting wfc are   76 randomized atomic wfcs
     Checking if some PAW data can be deallocated... 

     Writing output data file crystal.save

     total cpu time spent up to now is     1249.2 secs

     per-process dynamical memory:   187.3 Mb

     Self-consistent Calculation

     iteration #  1     ecut=    80.00 Ry     beta=0.70
     Davidson diagonalization with overlap
     ethr =  1.00E-06,  avg # of iterations =  7.6

     total cpu time spent up to now is     1382.0 secs

     total energy              =    -495.84955225 Ry
     Harris-Foulkes estimate   =    -497.73402756 Ry
     estimated scf accuracy    <       2.84924802 Ry

     iteration #  2     ecut=    80.00 Ry     beta=0.70
     Davidson diagonalization with overlap
     ethr =  3.10E-03,  avg # of iterations =  4.0

     total cpu time spent up to now is     1460.7 secs

     total energy              =    -496.37115935 Ry
     Harris-Foulkes estimate   =    -497.29155957 Ry
     estimated scf accuracy    <       1.69120024 Ry

     iteration #  3     ecut=    80.00 Ry     beta=0.70
     Davidson diagonalization with overlap
     ethr =  1.84E-03,  avg # of iterations =  4.2

     total cpu time spent up to now is     1522.2 secs

     total energy              =    -496.67542835 Ry
     Harris-Foulkes estimate   =    -496.75471324 Ry
     estimated scf accuracy    <       0.13981713 Ry

     iteration #  4     ecut=    80.00 Ry     beta=0.70
     Davidson diagonalization with overlap
     ethr =  1.52E-04,  avg # of iterations =  4.0

     total cpu time spent up to now is     1605.1 secs

     total energy              =    -496.78668956 Ry
     Harris-Foulkes estimate   =    -496.82243147 Ry
     estimated scf accuracy    <       0.08520515 Ry

     iteration #  5     ecut=    80.00 Ry     beta=0.70
     Davidson diagonalization with overlap
     ethr =  9.26E-05,  avg # of iterations =  2.6

     total cpu time spent up to now is     1660.5 secs

     total energy              =    -496.78629194 Ry
     Harris-Foulkes estimate   =    -496.79404617 Ry
     estimated scf accuracy    <       0.02094192 Ry

     iteration #  6     ecut=    80.00 Ry     beta=0.70
     Davidson diagonalization with overlap
     ethr =  2.28E-05,  avg # of iterations =  3.8

     total cpu time spent up to now is     1734.2 secs

     total energy              =    -496.79754655 Ry
     Harris-Foulkes estimate   =    -496.79850979 Ry
     estimated scf accuracy    <       0.00270862 Ry

     iteration #  7     ecut=    80.00 Ry     beta=0.70
     Davidson diagonalization with overlap
     ethr =  2.94E-06,  avg # of iterations =  2.6

     total cpu time spent up to now is     1791.2 secs

     total energy              =    -496.79735170 Ry
     Harris-Foulkes estimate   =    -496.79788602 Ry
     estimated scf accuracy    <       0.00103921 Ry

     iteration #  8     ecut=    80.00 Ry     beta=0.70
     Davidson diagonalization with overlap
     ethr =  1.13E-06,  avg # of iterations =  4.0

     total cpu time spent up to now is     1863.6 secs

     total energy              =    -496.79770981 Ry
     Harris-Foulkes estimate   =    -496.79779955 Ry
     estimated scf accuracy    <       0.00019909 Ry

     iteration #  9     ecut=    80.00 Ry     beta=0.70
     Davidson diagonalization with overlap
     ethr =  2.16E-07,  avg # of iterations =  2.0

     total cpu time spent up to now is     1918.1 secs

     total energy              =    -496.79770534 Ry
     Harris-Foulkes estimate   =    -496.79772581 Ry
     estimated scf accuracy    <       0.00004261 Ry

     iteration # 10     ecut=    80.00 Ry     beta=0.70
     Davidson diagonalization with overlap
[...]
 23  21   1.068615E+01   2.356680E+02   5.572203E+03   4.779091E+00   5.877380E+00
 23  22   1.068615E+01   2.356680E+02   5.572203E+03   4.779091E+00   5.877380E+00
 23  23   1.068615E+01   2.356680E+02   5.572203E+03   4.779091E+00   5.877380E+00
 24   1   4.886004E+00   1.197992E+02   3.796438E+03   5.286899E+00   6.208065E+00
 24   2   4.886004E+00   1.197992E+02   3.796438E+03   5.286899E+00   6.208065E+00
 24   3   4.886004E+00   1.197992E+02   3.796438E+03   5.286899E+00   6.208065E+00
 24   4   4.886004E+00   1.197992E+02   3.796438E+03   5.286899E+00   6.208065E+00
 24   5   4.905138E+00   1.199157E+02   3.789978E+03   5.279502E+00   6.203248E+00
 24   6   4.905138E+00   1.199157E+02   3.789978E+03   5.279502E+00   6.203248E+00
 24   7   4.905138E+00   1.199157E+02   3.789978E+03   5.279502E+00   6.203248E+00
 24   8   4.905138E+00   1.199157E+02   3.789978E+03   5.279502E+00   6.203248E+00
 24   9   4.747072E+00   1.236373E+02   3.995888E+03   5.391608E+00   6.276251E+00
 24  10   4.747072E+00   1.236373E+02   3.995888E+03   5.391608E+00   6.276251E+00
 24  11   4.747072E+00   1.236373E+02   3.995888E+03   5.391608E+00   6.276251E+00
 24  12   4.747072E+00   1.236373E+02   3.995888E+03   5.391608E+00   6.276251E+00
 24  13   1.271738E+01   3.950838E+02   1.340697E+04   5.699067E+00   6.476469E+00
 24  14   1.271738E+01   3.950838E+02   1.340697E+04   5.699067E+00   6.476469E+00
 24  15   1.271738E+01   3.950838E+02   1.340697E+04   5.699067E+00   6.476469E+00
 24  16   1.271738E+01   3.950838E+02   1.340697E+04   5.699067E+00   6.476469E+00
 24  17   1.257156E+01   3.928188E+02   1.348764E+04   5.724230E+00   6.492855E+00
 24  18   1.257156E+01   3.928188E+02   1.348764E+04   5.724230E+00   6.492855E+00
 24  19   1.257156E+01   3.928188E+02   1.348764E+04   5.724230E+00   6.492855E+00
 24  20   1.257156E+01   3.928188E+02   1.348764E+04   5.724230E+00   6.492855E+00
 24  21   1.068615E+01   2.356680E+02   5.572203E+03   4.779091E+00   5.877380E+00
 24  22   1.068615E+01   2.356680E+02   5.572203E+03   4.779091E+00   5.877380E+00
 24  23   1.068615E+01   2.356680E+02   5.572203E+03   4.779091E+00   5.877380E+00
 24  24   1.068615E+01   2.356680E+02   5.572203E+03   4.779091E+00   5.877380E+00
 25   1   4.790248E+00   1.183635E+02   3.773205E+03   5.304874E+00   6.219770E+00
 25   2   4.790248E+00   1.183635E+02   3.773205E+03   5.304874E+00   6.219770E+00
 25   3   4.790248E+00   1.183635E+02   3.773205E+03   5.304874E+00   6.219770E+00
 25   4   4.790248E+00   1.183635E+02   3.773205E+03   5.304874E+00   6.219770E+00
 25   5   4.809166E+00   1.184852E+02   3.767074E+03   5.297509E+00   6.214974E+00
 25   6   4.809166E+00   1.184852E+02   3.767074E+03   5.297509E+00   6.214974E+00
 25   7   4.809166E+00   1.184852E+02   3.767074E+03   5.297509E+00   6.214974E+00
 25   8   4.809166E+00   1.184852E+02   3.767074E+03   5.297509E+00   6.214974E+00
 25   9   4.655968E+00   1.221510E+02   3.971461E+03   5.409428E+00   6.287856E+00
 25  10   4.655968E+00   1.221510E+02   3.971461E+03   5.409428E+00   6.287856E+00
 25  11   4.655968E+00   1.221510E+02   3.971461E+03   5.409428E+00   6.287856E+00
 25  12   4.655968E+00   1.221510E+02   3.971461E+03   5.409428E+00   6.287856E+00
 25  13   1.247645E+01   3.899745E+02   1.331528E+04   5.716569E+00   6.487866E+00
 25  14   1.247645E+01   3.899745E+02   1.331528E+04   5.716569E+00   6.487866E+00
 25  15   1.247645E+01   3.899745E+02   1.331528E+04   5.716569E+00   6.487866E+00
 25  16   1.247645E+01   3.899745E+02   1.331528E+04   5.716569E+00   6.487866E+00
 25  17   1.233396E+01   3.877429E+02   1.339397E+04   5.741588E+00   6.504158E+00
 25  18   1.233396E+01   3.877429E+02   1.339397E+04   5.741588E+00   6.504158E+00
 25  19   1.233396E+01   3.877429E+02   1.339397E+04   5.741588E+00   6.504158E+00
 25  20   1.233396E+01   3.877429E+02   1.339397E+04   5.741588E+00   6.504158E+00
 25  21   1.043548E+01   2.321268E+02   5.543821E+03   4.801423E+00   5.891923E+00
 25  22   1.043548E+01   2.321268E+02   5.543821E+03   4.801423E+00   5.891923E+00
 25  23   1.043548E+01   2.321268E+02   5.543821E+03   4.801423E+00   5.891923E+00
 25  24   1.043548E+01   2.321268E+02   5.543821E+03   4.801423E+00   5.891923E+00
 25  25   1.019188E+01   2.286487E+02   5.515038E+03   4.823598E+00   5.906363E+00
 26   1   4.790248E+00   1.183635E+02   3.773205E+03   5.304874E+00   6.219770E+00
 26   2   4.790248E+00   1.183635E+02   3.773205E+03   5.304874E+00   6.219770E+00
 26   3   4.790248E+00   1.183635E+02   3.773205E+03   5.304874E+00   6.219770E+00
 26   4   4.790248E+00   1.183635E+02   3.773205E+03   5.304874E+00   6.219770E+00
 26   5   4.809166E+00   1.184852E+02   3.767074E+03   5.297509E+00   6.214974E+00
 26   6   4.809166E+00   1.184852E+02   3.767074E+03   5.297509E+00   6.214974E+00
 26   7   4.809166E+00   1.184852E+02   3.767074E+03   5.297509E+00   6.214974E+00
 26   8   4.809166E+00   1.184852E+02   3.767074E+03   5.297509E+00   6.214974E+00
 26   9   4.655968E+00   1.221510E+02   3.971461E+03   5.409428E+00   6.287856E+00
 26  10   4.655968E+00   1.221510E+02   3.971461E+03   5.409428E+00   6.287856E+00
 26  11   4.655968E+00   1.221510E+02   3.971461E+03   5.409428E+00   6.287856E+00
 26  12   4.655968E+00   1.221510E+02   3.971461E+03   5.409428E+00   6.287856E+00
 26  13   1.247645E+01   3.899745E+02   1.331528E+04   5.716569E+00   6.487866E+00
 26  14   1.247645E+01   3.899745E+02   1.331528E+04   5.716569E+00   6.487866E+00
 26  15   1.247645E+01   3.899745E+02   1.331528E+04   5.716569E+00   6.487866E+00
 26  16   1.247645E+01   3.899745E+02   1.331528E+04   5.716569E+00   6.487866E+00
 26  17   1.233396E+01   3.877429E+02   1.339397E+04   5.741588E+00   6.504158E+00
 26  18   1.233396E+01   3.877429E+02   1.339397E+04   5.741588E+00   6.504158E+00
 26  19   1.233396E+01   3.877429E+02   1.339397E+04   5.741588E+00   6.504158E+00
 26  20   1.233396E+01   3.877429E+02   1.339397E+04   5.741588E+00   6.504158E+00
 26  21   1.043548E+01   2.321268E+02   5.543821E+03   4.801423E+00   5.891923E+00
 26  22   1.043548E+01   2.321268E+02   5.543821E+03   4.801423E+00   5.891923E+00
 26  23   1.043548E+01   2.321268E+02   5.543821E+03   4.801423E+00   5.891923E+00
 26  24   1.043548E+01   2.321268E+02   5.543821E+03   4.801423E+00   5.891923E+00
 26  25   1.019188E+01   2.286487E+02   5.515038E+03   4.823598E+00   5.906363E+00
 26  26   1.019188E+01   2.286487E+02   5.515038E+03   4.823598E+00   5.906363E+00
 27   1   4.790248E+00   1.183635E+02   3.773205E+03   5.304874E+00   6.219770E+00
 27   2   4.790248E+00   1.183635E+02   3.773205E+03   5.304874E+00   6.219770E+00
 27   3   4.790248E+00   1.183635E+02   3.773205E+03   5.304874E+00   6.219770E+00
 27   4   4.790248E+00   1.183635E+02   3.773205E+03   5.304874E+00   6.219770E+00
 27   5   4.809166E+00   1.184852E+02   3.767074E+03   5.297509E+00   6.214974E+00
 27   6   4.809166E+00   1.184852E+02   3.767074E+03   5.297509E+00   6.214974E+00
 27   7   4.809166E+00   1.184852E+02   3.767074E+03   5.297509E+00   6.214974E+00
 27   8   4.809166E+00   1.184852E+02   3.767074E+03   5.297509E+00   6.214974E+00
 27   9   4.655968E+00   1.221510E+02   3.971461E+03   5.409428E+00   6.287856E+00
 27  10   4.655968E+00   1.221510E+02   3.971461E+03   5.409428E+00   6.287856E+00
 27  11   4.655968E+00   1.221510E+02   3.971461E+03   5.409428E+00   6.287856E+00
 27  12   4.655968E+00   1.221510E+02   3.971461E+03   5.409428E+00   6.287856E+00
 27  13   1.247645E+01   3.899745E+02   1.331528E+04   5.716569E+00   6.487866E+00
 27  14   1.247645E+01   3.899745E+02   1.331528E+04   5.716569E+00   6.487866E+00
 27  15   1.247645E+01   3.899745E+02   1.331528E+04   5.716569E+00   6.487866E+00
 27  16   1.247645E+01   3.899745E+02   1.331528E+04   5.716569E+00   6.487866E+00
 27  17   1.233396E+01   3.877429E+02   1.339397E+04   5.741588E+00   6.504158E+00
 27  18   1.233396E+01   3.877429E+02   1.339397E+04   5.741588E+00   6.504158E+00
 27  19   1.233396E+01   3.877429E+02   1.339397E+04   5.741588E+00   6.504158E+00
 27  20   1.233396E+01   3.877429E+02   1.339397E+04   5.741588E+00   6.504158E+00
 27  21   1.043548E+01   2.321268E+02   5.543821E+03   4.801423E+00   5.891923E+00
 27  22   1.043548E+01   2.321268E+02   5.543821E+03   4.801423E+00   5.891923E+00
 27  23   1.043548E+01   2.321268E+02   5.543821E+03   4.801423E+00   5.891923E+00
 27  24   1.043548E+01   2.321268E+02   5.543821E+03   4.801423E+00   5.891923E+00
 27  25   1.019188E+01   2.286487E+02   5.515038E+03   4.823598E+00   5.906363E+00
 27  26   1.019188E+01   2.286487E+02   5.515038E+03   4.823598E+00   5.906363E+00
 27  27   1.019188E+01   2.286487E+02   5.515038E+03   4.823598E+00   5.906363E+00
 28   1   4.790248E+00   1.183635E+02   3.773205E+03   5.304874E+00   6.219770E+00
 28   2   4.790248E+00   1.183635E+02   3.773205E+03   5.304874E+00   6.219770E+00
 28   3   4.790248E+00   1.183635E+02   3.773205E+03   5.304874E+00   6.219770E+00
 28   4   4.790248E+00   1.183635E+02   3.773205E+03   5.304874E+00   6.219770E+00
 28   5   4.809166E+00   1.184852E+02   3.767074E+03   5.297509E+00   6.214974E+00
 28   6   4.809166E+00   1.184852E+02   3.767074E+03   5.297509E+00   6.214974E+00
 28   7   4.809166E+00   1.184852E+02   3.767074E+03   5.297509E+00   6.214974E+00
 28   8   4.809166E+00   1.184852E+02   3.767074E+03   5.297509E+00   6.214974E+00
 28   9   4.655968E+00   1.221510E+02   3.971461E+03   5.409428E+00   6.287856E+00
 28  10   4.655968E+00   1.221510E+02   3.971461E+03   5.409428E+00   6.287856E+00
 28  11   4.655968E+00   1.221510E+02   3.971461E+03   5.409428E+00   6.287856E+00
 28  12   4.655968E+00   1.221510E+02   3.971461E+03   5.409428E+00   6.287856E+00
 28  13   1.247645E+01   3.899745E+02   1.331528E+04   5.716569E+00   6.487866E+00
 28  14   1.247645E+01   3.899745E+02   1.331528E+04   5.716569E+00   6.487866E+00
 28  15   1.247645E+01   3.899745E+02   1.331528E+04   5.716569E+00   6.487866E+00
 28  16   1.247645E+01   3.899745E+02   1.331528E+04   5.716569E+00   6.487866E+00
 28  17   1.233396E+01   3.877429E+02   1.339397E+04   5.741588E+00   6.504158E+00
 28  18   1.233396E+01   3.877429E+02   1.339397E+04   5.741588E+00   6.504158E+00
 28  19   1.233396E+01   3.877429E+02   1.339397E+04   5.741588E+00   6.504158E+00
 28  20   1.233396E+01   3.877429E+02   1.339397E+04   5.741588E+00   6.504158E+00
 28  21   1.043548E+01   2.321268E+02   5.543821E+03   4.801423E+00   5.891923E+00
 28  22   1.043548E+01   2.321268E+02   5.543821E+03   4.801423E+00   5.891923E+00
 28  23   1.043548E+01   2.321268E+02   5.543821E+03   4.801423E+00   5.891923E+00
 28  24   1.043548E+01   2.321268E+02   5.543821E+03   4.801423E+00   5.891923E+00
 28  25   1.019188E+01   2.286487E+02   5.515038E+03   4.823598E+00   5.906363E+00
 28  26   1.019188E+01   2.286487E+02   5.515038E+03   4.823598E+00   5.906363E+00
 28  27   1.019188E+01   2.286487E+02   5.515038E+03   4.823598E+00   5.906363E+00
 28  28   1.019188E+01   2.286487E+02   5.515038E+03   4.823598E+00   5.906363E+00
 
+ van der Waals energies, forces and stresses (Ry,bohr)
  Evdw(total,Ry)   =  -1.678916678269E-01
  Evdw(C6,Ry)      =  -8.398308934856E-02
  Evdw(C8,Ry)      =  -4.788116483709E-02
  Evdw(C10,Ry)     =  -3.602741364122E-02
  Fvdw (001,Ry/bohr) =  -8.058628481998E-05  -2.537454967815E-04  -4.848660358938E-05
  Fvdw (002,Ry/bohr) =   8.058628481997E-05   2.537454967815E-04   4.848660358938E-05
  Fvdw (003,Ry/bohr) =   8.058628481996E-05  -2.537454967815E-04   4.848660358938E-05
  Fvdw (004,Ry/bohr) =  -8.058628481998E-05   2.537454967815E-04  -4.848660358938E-05
  Fvdw (005,Ry/bohr) =   2.053194519169E-04  -9.985178738136E-05   2.518940937603E-04
  Fvdw (006,Ry/bohr) =  -2.053194519169E-04   9.985178738135E-05  -2.518940937603E-04
  Fvdw (007,Ry/bohr) =  -2.053194519169E-04  -9.985178738135E-05  -2.518940937603E-04
  Fvdw (008,Ry/bohr) =   2.053194519169E-04   9.985178738135E-05   2.518940937603E-04
  Fvdw (009,Ry/bohr) =   9.193392250042E-05  -2.014956117327E-04   9.426943748016E-05
  Fvdw (010,Ry/bohr) =  -9.193392250042E-05   2.014956117327E-04  -9.426943748016E-05
  Fvdw (011,Ry/bohr) =  -9.193392250042E-05  -2.014956117327E-04  -9.426943748016E-05
  Fvdw (012,Ry/bohr) =   9.193392250042E-05   2.014956117327E-04   9.426943748016E-05
  Fvdw (013,Ry/bohr) =   8.438298969984E-05  -5.222029612629E-04   2.392447175720E-04
  Fvdw (014,Ry/bohr) =  -8.438298969986E-05   5.222029612629E-04  -2.392447175720E-04
  Fvdw (015,Ry/bohr) =  -8.438298969986E-05  -5.222029612629E-04  -2.392447175720E-04
  Fvdw (016,Ry/bohr) =   8.438298969984E-05   5.222029612629E-04   2.392447175720E-04
  Fvdw (017,Ry/bohr) =   3.045938668232E-04   1.743328500248E-05  -2.991734639516E-04
  Fvdw (018,Ry/bohr) =  -3.045938668232E-04  -1.743328500249E-05   2.991734639517E-04
  Fvdw (019,Ry/bohr) =  -3.045938668232E-04   1.743328500249E-05   2.991734639516E-04
  Fvdw (020,Ry/bohr) =   3.045938668232E-04  -1.743328500248E-05  -2.991734639516E-04
  Fvdw (021,Ry/bohr) =  -2.644321225744E-05   2.799273976782E-04  -4.002016895543E-04
  Fvdw (022,Ry/bohr) =   2.644321225745E-05  -2.799273976782E-04   4.002016895543E-04
  Fvdw (023,Ry/bohr) =   2.644321225745E-05   2.799273976782E-04   4.002016895543E-04
  Fvdw (024,Ry/bohr) =  -2.644321225744E-05  -2.799273976782E-04  -4.002016895543E-04
  Fvdw (025,Ry/bohr) =   5.422388456016E-04  -3.287197800266E-04   5.405345435248E-05
  Fvdw (026,Ry/bohr) =  -5.422388456016E-04   3.287197800266E-04  -5.405345435248E-05
  Fvdw (027,Ry/bohr) =  -5.422388456016E-04  -3.287197800266E-04  -5.405345435249E-05
  Fvdw (028,Ry/bohr) =   5.422388456016E-04   3.287197800266E-04   5.405345435248E-05
  sigma_vdw (Ry/bohr**3) =  -1.149933101387E-04  -1.747005453712E-21  -9.245203648775E-06  
                            -1.747005453712E-21  -1.125660690659E-04   2.646977960170E-22  
                            -9.245203648775E-06   2.646977960170E-22  -1.191474130880E-04  
  sigma_vdw (GPa) =  -1.691609709973E+00  -2.569933316391E-17  -1.360016182166E-01  
                     -2.569933316391E-17  -1.655903767060E+00   3.893838358168E-18  
                     -1.360016182166E-01   3.893838358168E-18  -1.752718663849E+00  
 

!    total energy              =    -496.96563691 Ry
     Harris-Foulkes estimate   =    -496.96563692 Ry
     estimated scf accuracy    <          1.5E-09 Ry

     total all-electron energy =     -1829.814948 Ry

     The total energy is the sum of the following terms:

     one-electron contribution =    -217.00148387 Ry
     hartree contribution      =     147.43317538 Ry
     xc contribution           =    -101.63707914 Ry
     ewald contribution        =    -195.08467362 Ry
     Dispersion XDM Correction =      -0.16789167 Ry
     one-center paw contrib.   =    -130.50768400 Ry

     convergence has been achieved in  18 iterations

     Forces acting on atoms (Ry/au):

     atom    1 type  1   force =     0.00000212   -0.00004045    0.00000168
     atom    2 type  1   force =    -0.00000212    0.00004045   -0.00000168
     atom    3 type  1   force =    -0.00000212   -0.00004045   -0.00000168
     atom    4 type  1   force =     0.00000212    0.00004045    0.00000168
     atom    5 type  1   force =     0.00006858    0.00001302    0.00005550
     atom    6 type  1   force =    -0.00006858   -0.00001302   -0.00005550
     atom    7 type  1   force =    -0.00006858    0.00001302   -0.00005550
     atom    8 type  1   force =     0.00006858   -0.00001302    0.00005550
     atom    9 type  1   force =     0.00000391   -0.00001796   -0.00006224
     atom   10 type  1   force =    -0.00000391    0.00001796    0.00006224
     atom   11 type  1   force =    -0.00000391   -0.00001796    0.00006224
     atom   12 type  1   force =     0.00000391    0.00001796   -0.00006224
     atom   13 type  2   force =     0.00001849    0.00001059   -0.00000295
     atom   14 type  2   force =    -0.00001849   -0.00001059    0.00000295
     atom   15 type  2   force =    -0.00001849    0.00001059    0.00000295
     atom   16 type  2   force =     0.00001849   -0.00001059   -0.00000295
     atom   17 type  2   force =     0.00005764    0.00001545   -0.00008524
     atom   18 type  2   force =    -0.00005764   -0.00001545    0.00008524
     atom   19 type  2   force =    -0.00005764    0.00001545    0.00008524
     atom   20 type  2   force =     0.00005764   -0.00001545   -0.00008524
     atom   21 type  3   force =     0.00001679   -0.00007167   -0.00001672
     atom   22 type  3   force =    -0.00001679    0.00007167    0.00001672
     atom   23 type  3   force =    -0.00001679   -0.00007167    0.00001672
     atom   24 type  3   force =     0.00001679    0.00007167   -0.00001672
     atom   25 type  3   force =     0.00003638   -0.00002705    0.00004724
     atom   26 type  3   force =    -0.00003638    0.00002705   -0.00004724
     atom   27 type  3   force =    -0.00003638   -0.00002705   -0.00004724
     atom   28 type  3   force =     0.00003638    0.00002705    0.00004724

     Total force =     0.000375     Total SCF correction =     0.000075
     SCF correction compared to forces is large: reduce conv_thr to get better values


     entering subroutine stress ...

          total   stress  (Ry/bohr**3)                   (kbar)     P=   -0.05
  -0.00000007   0.00000000  -0.00000012         -0.01      0.00     -0.02
   0.00000000  -0.00000038   0.00000000          0.00     -0.06      0.00
  -0.00000012   0.00000000  -0.00000047         -0.02      0.00     -0.07


     Writing output data file crystal.save
 
     init_run     :     67.15s CPU     67.40s WALL (       2 calls)
     electrons    :   2433.71s CPU   2440.07s WALL (       2 calls)
     forces       :     26.49s CPU     26.78s WALL (       2 calls)
     stress       :     51.17s CPU     51.51s WALL (       2 calls)

     Called by init_run:
     wfcinit      :     40.35s CPU     40.40s WALL (       2 calls)
     potinit      :     13.60s CPU     13.62s WALL (       2 calls)

     Called by electrons:
     c_bands      :   1426.86s CPU   1427.86s WALL (      34 calls)
     sum_band     :    858.02s CPU    861.08s WALL (      34 calls)
     v_of_rho     :     17.96s CPU     17.98s WALL (      36 calls)
     newd         :     12.82s CPU     15.08s WALL (      36 calls)
     PAW_pot      :      9.11s CPU      9.17s WALL (      36 calls)
     mix_rho      :      7.44s CPU      7.44s WALL (      34 calls)

     Called by c_bands:
     init_us_2    :      7.04s CPU      7.05s WALL (    1184 calls)
     cegterg      :   1409.52s CPU   1410.44s WALL (     544 calls)

     Called by sum_band:
     sum_band:bec :      0.03s CPU      0.04s WALL (     544 calls)
     addusdens    :     18.34s CPU     20.79s WALL (      34 calls)

     Called by *egterg:
     h_psi        :   1242.79s CPU   1243.60s WALL (    2479 calls)
     s_psi        :     47.70s CPU     47.72s WALL (    2479 calls)
     g_psi        :      3.22s CPU      3.22s WALL (    1903 calls)
     cdiaghg      :     14.85s CPU     14.85s WALL (    2447 calls)

     Called by h_psi:
     add_vuspsi   :     48.50s CPU     48.52s WALL (    2479 calls)

     General routines
     calbec       :     68.54s CPU     68.55s WALL (    3183 calls)
     fft          :     32.06s CPU     32.06s WALL (     804 calls)
     ffts         :      0.83s CPU      0.83s WALL (     104 calls)
     fftw         :   1575.19s CPU   1576.48s WALL (  265984 calls)
     interpolate  :      5.46s CPU      5.46s WALL (     104 calls)
     davcio       :      0.00s CPU      0.08s WALL (      32 calls)
 
     Parallel routines
     fft_scatter  :    138.38s CPU    137.42s WALL (  266892 calls)
 
     PWSCF        : 42m59.20s CPU    43m 6.56s WALL

 
   This run was terminated on:   2:20:21  13May2016            

=------------------------------------------------------------------------------=
   JOB DONE.
=------------------------------------------------------------------------------=
